 Entering Gaussian System, Link 0=g16
 Initial command:
 /home/wongzit/g16/l1.exe "/home/wongzit/g16/Scratch/Gau-115302.inp" -scrdir="/home/wongzit/g16/Scratch/"
 Default is to use a total of   6 processors:
                                6 via shared-memory
                                1 via Linda
 Entering Link 1 = /home/wongzit/g16/l1.exe PID=    115309.
  
 Copyright (c) 1988-2017, Gaussian, Inc.  All Rights Reserved.
  
 This is part of the Gaussian(R) 16 program.  It is based on
 the Gaussian(R) 09 system (copyright 2009, Gaussian, Inc.),
 the Gaussian(R) 03 system (copyright 2003, Gaussian, Inc.),
 the Gaussian(R) 98 system (copyright 1998, Gaussian, Inc.),
 the Gaussian(R) 94 system (copyright 1995, Gaussian, Inc.),
 the Gaussian 92(TM) system (copyright 1992, Gaussian, Inc.),
 the Gaussian 90(TM) system (copyright 1990, Gaussian, Inc.),
 the Gaussian 88(TM) system (copyright 1988, Gaussian, Inc.),
 the Gaussian 86(TM) system (copyright 1986, Carnegie Mellon
 University), and the Gaussian 82(TM) system (copyright 1983,
 Carnegie Mellon University). Gaussian is a federally registered
 trademark of Gaussian, Inc.
  
 This software contains proprietary and confidential information,
 including trade secrets, belonging to Gaussian, Inc.
  
 This software is provided under written license and may be
 used, copied, transmitted, or stored only in accord with that
 written license.
  
 The following legend is applicable only to US Government
 contracts under FAR:
  
                    RESTRICTED RIGHTS LEGEND
  
 Use, reproduction and disclosure by the US Government is
 subject to restrictions as set forth in subparagraphs (a)
 and (c) of the Commercial Computer Software - Restricted
 Rights clause in FAR 52.227-19.
  
 Gaussian, Inc.
 340 Quinnipiac St., Bldg. 40, Wallingford CT 06492
  
  
 ---------------------------------------------------------------
 Warning -- This program may not be used in any manner that
 competes with the business of Gaussian, Inc. or will provide
 assistance to any competitor of Gaussian, Inc.  The licensee
 of this program is prohibited from giving any competitor of
 Gaussian, Inc. access to this program.  By using this program,
 the user acknowledges that Gaussian, Inc. is engaged in the
 business of creating and licensing software in the field of
 computational chemistry and represents and warrants to the
 licensee that it is not a competitor of Gaussian, Inc. and that
 it will not use this program in any manner prohibited above.
 ---------------------------------------------------------------
  

 Cite this work as:
 Gaussian 16, Revision B.01,
 M. J. Frisch, G. W. Trucks, H. B. Schlegel, G. E. Scuseria, 
 M. A. Robb, J. R. Cheeseman, G. Scalmani, V. Barone, 
 G. A. Petersson, H. Nakatsuji, X. Li, M. Caricato, A. V. Marenich, 
 J. Bloino, B. G. Janesko, R. Gomperts, B. Mennucci, H. P. Hratchian, 
 J. V. Ortiz, A. F. Izmaylov, J. L. Sonnenberg, D. Williams-Young, 
 F. Ding, F. Lipparini, F. Egidi, J. Goings, B. Peng, A. Petrone, 
 T. Henderson, D. Ranasinghe, V. G. Zakrzewski, J. Gao, N. Rega, 
 G. Zheng, W. Liang, M. Hada, M. Ehara, K. Toyota, R. Fukuda, 
 J. Hasegawa, M. Ishida, T. Nakajima, Y. Honda, O. Kitao, H. Nakai, 
 T. Vreven, K. Throssell, J. A. Montgomery, Jr., J. E. Peralta, 
 F. Ogliaro, M. J. Bearpark, J. J. Heyd, E. N. Brothers, K. N. Kudin, 
 V. N. Staroverov, T. A. Keith, R. Kobayashi, J. Normand, 
 K. Raghavachari, A. P. Rendell, J. C. Burant, S. S. Iyengar, 
 J. Tomasi, M. Cossi, J. M. Millam, M. Klene, C. Adamo, R. Cammi, 
 J. W. Ochterski, R. L. Martin, K. Morokuma, O. Farkas, 
 J. B. Foresman, and D. J. Fox, Gaussian, Inc., Wallingford CT, 2016.
 
 ******************************************
 Gaussian 16:  ES64L-G16RevB.01 20-Dec-2017
                26-Jun-2020 
 ******************************************
 %nprocshared=6
 Will use up to    6 processors via shared memory.
 %mem=10GB
 %chk=s_dr_wb97xd.chk
 -----------------------------------------------
 #p opt freq uwb97xd/6-31g(d) guess=(mix,always)
 -----------------------------------------------
 1/18=20,19=15,26=3,38=1/1,3;
 2/9=110,12=2,17=6,18=5,40=1/2;
 3/5=1,6=6,7=1,11=2,25=1,30=1,71=1,74=-58,116=2/1,2,3;
 4/13=-1/1;
 5/5=2,38=5/2;
 6/7=2,8=2,9=2,10=2,28=1/1;
 7//1,2,3,16;
 1/18=20,19=15,26=3/3(2);
 2/9=110/2;
 99//99;
 2/9=110/2;
 3/5=1,6=6,7=1,11=2,25=1,30=1,71=1,74=-58,116=2/1,2,3;
 4/13=-1/1;
 5/5=2,38=5/2;
 7//1,2,3,16;
 1/18=20,19=15,26=3/3(-5);
 2/9=110/2;
 6/7=2,8=2,9=2,10=2,19=2,28=1/1;
 99/9=1/99;
 Leave Link    1 at Fri Jun 26 14:54:55 2020, MaxMem=  1342177280 cpu:               0.1 elap:               0.0
 (Enter /home/wongzit/g16/l101.exe)
 -------------------
 Title Card Required
 -------------------
 Symbolic Z-matrix:
 Charge =  0 Multiplicity = 1
 C                    -4.16111  -1.2471   -0.0647 
 C                    -3.24376  -0.04313  -0.11 
 C                    -4.19466   1.13662  -0.07702 
 C                    -5.63123   0.71118  -0.00371 
 C                    -5.60296  -0.84418   0.06223 
 C                    -3.77458   2.49659  -0.19283 
 C                    -2.96997   5.19495  -0.4367 
 C                    -4.72159   3.54304  -0.31669 
 C                    -2.40548   2.85216  -0.19763 
 C                    -2.00458   4.18224  -0.31766 
 C                    -4.31955   4.86241  -0.43624 
 H                    -5.78034   3.30936  -0.32877 
 H                    -1.65737   2.07647  -0.10484 
 H                    -5.06606   5.64468  -0.53313 
 H                    -2.65256   6.22767  -0.52955 
 C                    -3.71405  -2.59809  -0.16151 
 C                    -2.85374  -5.28321  -0.35866 
 C                    -2.33732  -2.92283  -0.19461 
 C                    -4.63957  -3.66882  -0.23235 
 C                    -4.2103   -4.98125  -0.32996 
 C                    -1.90924  -4.24618  -0.29028 
 H                    -1.60535  -2.12842  -0.1403 
 H                    -5.70358  -3.46008  -0.22084 
 H                    -4.94073  -5.78245  -0.38619 
 H                    -2.515    -6.31061  -0.43312 
 C                    -0.50791  -4.53131  -0.31719 
 C                     0.68395  -4.73006  -0.34091 
 C                    -0.60977   4.49861  -0.32206 
 C                     0.57746   4.72449  -0.33088 
 C                     2.0022    4.84598  -0.33976 
 C                     4.79179   4.9419   -0.37742 
 C                     2.65777   6.04789  -0.62815 
 C                     2.76303   3.70761  -0.06012 
 C                     4.15672   3.73062  -0.08822 
 C                     4.04556   6.08573  -0.63958 
 H                     2.07752   6.93877  -0.84244 
 H                     2.24285   2.79256   0.19727 
 H                     4.55462   7.01678  -0.86871 
 H                     5.87557   4.98534  -0.42225 
 C                     2.11104  -4.81832  -0.36185 
 C                     4.90193  -4.84966  -0.41535 
 C                     2.84706  -3.66471  -0.07829 
 C                     2.79247  -6.00254  -0.66307 
 C                     4.18071  -6.00828  -0.68254 
 C                     4.24072  -3.65557  -0.11359 
 H                     2.30755  -2.7638    0.18908 
 H                     2.2317   -6.90505  -0.88058 
 H                     4.70972  -6.92562  -0.92155 
 H                     5.9862   -4.8678   -0.46575 
 C                     4.96313  -2.38911   0.16159 
 H                     3.4851   -1.17381  -0.78744 
 C                     4.41277  -1.19003  -0.22392 
 C                     6.82144  -1.18701   1.16723 
 C                     5.0108    0.04596   0.10829 
 C                     6.20333  -2.36889   0.85703 
 C                     6.23621   0.05738   0.82089 
 C                     4.38465   1.27032  -0.21505 
 H                     6.64709  -3.30746   1.17411 
 H                     7.73089   1.33375   1.72412 
 H                     7.7606   -1.19091   1.71364 
 C                     4.90706   2.47889   0.17967 
 H                     3.45809   1.23678  -0.77958 
 C                     6.14694   2.48189   0.876 
 H                     6.5688    3.42792   1.20071 
 C                     6.79222   1.3123    1.17725 
 O                    -2.38747  -0.03811  -1.24181 
 O                    -2.26817  -0.02572   0.92064 
 C                    -3.02581  -0.05091  -2.49891 
 H                    -3.63887  -0.95032  -2.6389 
 H                    -3.65252   0.83735  -2.64974 
 H                    -2.22778  -0.04908  -3.24288 
 C                    -2.76361   0.00083   2.24154 
 H                    -3.33928   0.91326   2.44309 
 H                    -1.88787  -0.01667   2.892 
 H                    -3.39347  -0.86917   2.46195 
 H                    -6.16785   1.04358  -0.90151 
 H                    -6.20202  -1.29191  -0.74457 
 C                    -6.22365  -1.15857   1.40913 
 H                    -6.2914   -2.17232   1.78981 
 C                    -6.63803  -0.07038   2.04656 
 H                    -7.10313  -0.06647   3.02795 
 C                    -6.40071   1.1924    1.26615 
 H                    -5.82463   1.92764   1.83899 
 H                    -7.34785   1.67956   1.0024 
 
 ITRead=  0  0  0  0  0  0  0  0  0  0  0  0  0  0  0  0  0  0  0  0
 ITRead=  0  0  0  0  0  0  0  0  0  0  0  0  0  0  0  0  0  0  0  0
 ITRead=  0  0  0  0  0  0  0  0  0  0  0  0  0  0  0  0  0  0  0  0
 ITRead=  0  0  0  0  0  0  0  0  0  0  0  0  0  0  0  0  0  0  0  0
 ITRead=  0  0  0  0
 MicOpt= -1 -1 -1 -1 -1 -1 -1 -1 -1 -1 -1 -1 -1 -1 -1 -1 -1 -1 -1 -1
 MicOpt= -1 -1 -1 -1 -1 -1 -1 -1 -1 -1 -1 -1 -1 -1 -1 -1 -1 -1 -1 -1
 MicOpt= -1 -1 -1 -1 -1 -1 -1 -1 -1 -1 -1 -1 -1 -1 -1 -1 -1 -1 -1 -1
 MicOpt= -1 -1 -1 -1 -1 -1 -1 -1 -1 -1 -1 -1 -1 -1 -1 -1 -1 -1 -1 -1
 MicOpt= -1 -1 -1 -1
 NAtoms=     84 NQM=       84 NQMF=       0 NMMI=      0 NMMIF=      0
                NMic=       0 NMicF=      0.
                    Isotopes and Nuclear Properties:
 (Nuclear quadrupole moments (NQMom) in fm**2, nuclear magnetic moments (NMagM)
  in nuclear magnetons)

  Atom         1           2           3           4           5           6           7           8           9          10
 IAtWgt=          12          12          12          12          12          12          12          12          12          12
 AtmWgt=  12.0000000  12.0000000  12.0000000  12.0000000  12.0000000  12.0000000  12.0000000  12.0000000  12.0000000  12.0000000
 NucSpn=           0           0           0           0           0           0           0           0           0           0
 AtZEff=  -0.0000000  -0.0000000  -0.0000000  -0.0000000  -0.0000000  -0.0000000  -0.0000000  -0.0000000  -0.0000000  -0.0000000
 NQMom=    0.0000000   0.0000000   0.0000000   0.0000000   0.0000000   0.0000000   0.0000000   0.0000000   0.0000000   0.0000000
 NMagM=    0.0000000   0.0000000   0.0000000   0.0000000   0.0000000   0.0000000   0.0000000   0.0000000   0.0000000   0.0000000
 AtZNuc=   6.0000000   6.0000000   6.0000000   6.0000000   6.0000000   6.0000000   6.0000000   6.0000000   6.0000000   6.0000000

  Atom        11          12          13          14          15          16          17          18          19          20
 IAtWgt=          12           1           1           1           1          12          12          12          12          12
 AtmWgt=  12.0000000   1.0078250   1.0078250   1.0078250   1.0078250  12.0000000  12.0000000  12.0000000  12.0000000  12.0000000
 NucSpn=           0           1           1           1           1           0           0           0           0           0
 AtZEff=  -0.0000000  -0.0000000  -0.0000000  -0.0000000  -0.0000000  -0.0000000  -0.0000000  -0.0000000  -0.0000000  -0.0000000
 NQMom=    0.0000000   0.0000000   0.0000000   0.0000000   0.0000000   0.0000000   0.0000000   0.0000000   0.0000000   0.0000000
 NMagM=    0.0000000   2.7928460   2.7928460   2.7928460   2.7928460   0.0000000   0.0000000   0.0000000   0.0000000   0.0000000
 AtZNuc=   6.0000000   1.0000000   1.0000000   1.0000000   1.0000000   6.0000000   6.0000000   6.0000000   6.0000000   6.0000000

  Atom        21          22          23          24          25          26          27          28          29          30
 IAtWgt=          12           1           1           1           1          12          12          12          12          12
 AtmWgt=  12.0000000   1.0078250   1.0078250   1.0078250   1.0078250  12.0000000  12.0000000  12.0000000  12.0000000  12.0000000
 NucSpn=           0           1           1           1           1           0           0           0           0           0
 AtZEff=  -0.0000000  -0.0000000  -0.0000000  -0.0000000  -0.0000000  -0.0000000  -0.0000000  -0.0000000  -0.0000000  -0.0000000
 NQMom=    0.0000000   0.0000000   0.0000000   0.0000000   0.0000000   0.0000000   0.0000000   0.0000000   0.0000000   0.0000000
 NMagM=    0.0000000   2.7928460   2.7928460   2.7928460   2.7928460   0.0000000   0.0000000   0.0000000   0.0000000   0.0000000
 AtZNuc=   6.0000000   1.0000000   1.0000000   1.0000000   1.0000000   6.0000000   6.0000000   6.0000000   6.0000000   6.0000000

  Atom        31          32          33          34          35          36          37          38          39          40
 IAtWgt=          12          12          12          12          12           1           1           1           1          12
 AtmWgt=  12.0000000  12.0000000  12.0000000  12.0000000  12.0000000   1.0078250   1.0078250   1.0078250   1.0078250  12.0000000
 NucSpn=           0           0           0           0           0           1           1           1           1           0
 AtZEff=  -0.0000000  -0.0000000  -0.0000000  -0.0000000  -0.0000000  -0.0000000  -0.0000000  -0.0000000  -0.0000000  -0.0000000
 NQMom=    0.0000000   0.0000000   0.0000000   0.0000000   0.0000000   0.0000000   0.0000000   0.0000000   0.0000000   0.0000000
 NMagM=    0.0000000   0.0000000   0.0000000   0.0000000   0.0000000   2.7928460   2.7928460   2.7928460   2.7928460   0.0000000
 AtZNuc=   6.0000000   6.0000000   6.0000000   6.0000000   6.0000000   1.0000000   1.0000000   1.0000000   1.0000000   6.0000000

  Atom        41          42          43          44          45          46          47          48          49          50
 IAtWgt=          12          12          12          12          12           1           1           1           1          12
 AtmWgt=  12.0000000  12.0000000  12.0000000  12.0000000  12.0000000   1.0078250   1.0078250   1.0078250   1.0078250  12.0000000
 NucSpn=           0           0           0           0           0           1           1           1           1           0
 AtZEff=  -0.0000000  -0.0000000  -0.0000000  -0.0000000  -0.0000000  -0.0000000  -0.0000000  -0.0000000  -0.0000000  -0.0000000
 NQMom=    0.0000000   0.0000000   0.0000000   0.0000000   0.0000000   0.0000000   0.0000000   0.0000000   0.0000000   0.0000000
 NMagM=    0.0000000   0.0000000   0.0000000   0.0000000   0.0000000   2.7928460   2.7928460   2.7928460   2.7928460   0.0000000
 AtZNuc=   6.0000000   6.0000000   6.0000000   6.0000000   6.0000000   1.0000000   1.0000000   1.0000000   1.0000000   6.0000000

  Atom        51          52          53          54          55          56          57          58          59          60
 IAtWgt=           1          12          12          12          12          12          12           1           1           1
 AtmWgt=   1.0078250  12.0000000  12.0000000  12.0000000  12.0000000  12.0000000  12.0000000   1.0078250   1.0078250   1.0078250
 NucSpn=           1           0           0           0           0           0           0           1           1           1
 AtZEff=  -0.0000000  -0.0000000  -0.0000000  -0.0000000  -0.0000000  -0.0000000  -0.0000000  -0.0000000  -0.0000000  -0.0000000
 NQMom=    0.0000000   0.0000000   0.0000000   0.0000000   0.0000000   0.0000000   0.0000000   0.0000000   0.0000000   0.0000000
 NMagM=    2.7928460   0.0000000   0.0000000   0.0000000   0.0000000   0.0000000   0.0000000   2.7928460   2.7928460   2.7928460
 AtZNuc=   1.0000000   6.0000000   6.0000000   6.0000000   6.0000000   6.0000000   6.0000000   1.0000000   1.0000000   1.0000000

  Atom        61          62          63          64          65          66          67          68          69          70
 IAtWgt=          12           1          12           1          12          16          16          12           1           1
 AtmWgt=  12.0000000   1.0078250  12.0000000   1.0078250  12.0000000  15.9949146  15.9949146  12.0000000   1.0078250   1.0078250
 NucSpn=           0           1           0           1           0           0           0           0           1           1
 AtZEff=  -0.0000000  -0.0000000  -0.0000000  -0.0000000  -0.0000000  -0.0000000  -0.0000000  -0.0000000  -0.0000000  -0.0000000
 NQMom=    0.0000000   0.0000000   0.0000000   0.0000000   0.0000000   0.0000000   0.0000000   0.0000000   0.0000000   0.0000000
 NMagM=    0.0000000   2.7928460   0.0000000   2.7928460   0.0000000   0.0000000   0.0000000   0.0000000   2.7928460   2.7928460
 AtZNuc=   6.0000000   1.0000000   6.0000000   1.0000000   6.0000000   8.0000000   8.0000000   6.0000000   1.0000000   1.0000000

  Atom        71          72          73          74          75          76          77          78          79          80
 IAtWgt=           1          12           1           1           1           1           1          12           1          12
 AtmWgt=   1.0078250  12.0000000   1.0078250   1.0078250   1.0078250   1.0078250   1.0078250  12.0000000   1.0078250  12.0000000
 NucSpn=           1           0           1           1           1           1           1           0           1           0
 AtZEff=  -0.0000000  -0.0000000  -0.0000000  -0.0000000  -0.0000000  -0.0000000  -0.0000000  -0.0000000  -0.0000000  -0.0000000
 NQMom=    0.0000000   0.0000000   0.0000000   0.0000000   0.0000000   0.0000000   0.0000000   0.0000000   0.0000000   0.0000000
 NMagM=    2.7928460   0.0000000   2.7928460   2.7928460   2.7928460   2.7928460   2.7928460   0.0000000   2.7928460   0.0000000
 AtZNuc=   1.0000000   6.0000000   1.0000000   1.0000000   1.0000000   1.0000000   1.0000000   6.0000000   1.0000000   6.0000000

  Atom        81          82          83          84
 IAtWgt=           1          12           1           1
 AtmWgt=   1.0078250  12.0000000   1.0078250   1.0078250
 NucSpn=           1           0           1           1
 AtZEff=  -0.0000000  -0.0000000  -0.0000000  -0.0000000
 NQMom=    0.0000000   0.0000000   0.0000000   0.0000000
 NMagM=    2.7928460   0.0000000   2.7928460   2.7928460
 AtZNuc=   1.0000000   6.0000000   1.0000000   1.0000000
 Leave Link  101 at Fri Jun 26 14:54:55 2020, MaxMem=  1342177280 cpu:               2.0 elap:               0.4
 (Enter /home/wongzit/g16/l103.exe)

 GradGradGradGradGradGradGradGradGradGradGradGradGradGradGradGradGradGrad
 Berny optimization.
 Initialization pass.
                           ----------------------------
                           !    Initial Parameters    !
                           ! (Angstroms and Degrees)  !
 --------------------------                            --------------------------
 ! Name  Definition              Value          Derivative Info.                !
 --------------------------------------------------------------------------------
 ! R1    R(1,2)                  1.5143         estimate D2E/DX2                !
 ! R2    R(1,5)                  1.5025         estimate D2E/DX2                !
 ! R3    R(1,16)                 1.4263         estimate D2E/DX2                !
 ! R4    R(2,3)                  1.5156         estimate D2E/DX2                !
 ! R5    R(2,66)                 1.4192         estimate D2E/DX2                !
 ! R6    R(2,67)                 1.4193         estimate D2E/DX2                !
 ! R7    R(3,4)                  1.5            estimate D2E/DX2                !
 ! R8    R(3,6)                  1.4281         estimate D2E/DX2                !
 ! R9    R(4,5)                  1.557          estimate D2E/DX2                !
 ! R10   R(4,76)                 1.0975         estimate D2E/DX2                !
 ! R11   R(4,82)                 1.5608         estimate D2E/DX2                !
 ! R12   R(5,77)                 1.1001         estimate D2E/DX2                !
 ! R13   R(5,78)                 1.516          estimate D2E/DX2                !
 ! R14   R(6,8)                  1.4168         estimate D2E/DX2                !
 ! R15   R(6,9)                  1.4145         estimate D2E/DX2                !
 ! R16   R(7,10)                 1.4042         estimate D2E/DX2                !
 ! R17   R(7,11)                 1.3899         estimate D2E/DX2                !
 ! R18   R(7,15)                 1.0844         estimate D2E/DX2                !
 ! R19   R(8,11)                 1.3844         estimate D2E/DX2                !
 ! R20   R(8,12)                 1.0843         estimate D2E/DX2                !
 ! R21   R(9,10)                 1.3944         estimate D2E/DX2                !
 ! R22   R(9,13)                 1.0816         estimate D2E/DX2                !
 ! R23   R(10,28)                1.4302         estimate D2E/DX2                !
 ! R24   R(11,14)                1.0856         estimate D2E/DX2                !
 ! R25   R(16,18)                1.4149         estimate D2E/DX2                !
 ! R26   R(16,19)                1.4171         estimate D2E/DX2                !
 ! R27   R(17,20)                1.3901         estimate D2E/DX2                !
 ! R28   R(17,21)                1.4043         estimate D2E/DX2                !
 ! R29   R(17,25)                1.0844         estimate D2E/DX2                !
 ! R30   R(18,21)                1.3942         estimate D2E/DX2                !
 ! R31   R(18,22)                1.0816         estimate D2E/DX2                !
 ! R32   R(19,20)                1.3843         estimate D2E/DX2                !
 ! R33   R(19,23)                1.0844         estimate D2E/DX2                !
 ! R34   R(20,24)                1.0856         estimate D2E/DX2                !
 ! R35   R(21,26)                1.4303         estimate D2E/DX2                !
 ! R36   R(26,27)                1.2085         estimate D2E/DX2                !
 ! R37   R(27,40)                1.43           estimate D2E/DX2                !
 ! R38   R(28,29)                1.2086         estimate D2E/DX2                !
 ! R39   R(29,30)                1.4299         estimate D2E/DX2                !
 ! R40   R(30,32)                1.3991         estimate D2E/DX2                !
 ! R41   R(30,33)                1.3975         estimate D2E/DX2                !
 ! R42   R(31,34)                1.3979         estimate D2E/DX2                !
 ! R43   R(31,35)                1.3907         estimate D2E/DX2                !
 ! R44   R(31,39)                1.0856         estimate D2E/DX2                !
 ! R45   R(32,35)                1.3884         estimate D2E/DX2                !
 ! R46   R(32,36)                1.0846         estimate D2E/DX2                !
 ! R47   R(33,34)                1.3942         estimate D2E/DX2                !
 ! R48   R(33,37)                1.0836         estimate D2E/DX2                !
 ! R49   R(34,61)                1.4838         estimate D2E/DX2                !
 ! R50   R(35,38)                1.0856         estimate D2E/DX2                !
 ! R51   R(40,42)                1.3975         estimate D2E/DX2                !
 ! R52   R(40,43)                1.3991         estimate D2E/DX2                !
 ! R53   R(41,44)                1.3907         estimate D2E/DX2                !
 ! R54   R(41,45)                1.3979         estimate D2E/DX2                !
 ! R55   R(41,49)                1.0856         estimate D2E/DX2                !
 ! R56   R(42,45)                1.3941         estimate D2E/DX2                !
 ! R57   R(42,46)                1.0836         estimate D2E/DX2                !
 ! R58   R(43,44)                1.3884         estimate D2E/DX2                !
 ! R59   R(43,47)                1.0846         estimate D2E/DX2                !
 ! R60   R(44,48)                1.0856         estimate D2E/DX2                !
 ! R61   R(45,50)                1.4838         estimate D2E/DX2                !
 ! R62   R(50,52)                1.3745         estimate D2E/DX2                !
 ! R63   R(50,55)                1.422          estimate D2E/DX2                !
 ! R64   R(51,52)                1.0855         estimate D2E/DX2                !
 ! R65   R(52,54)                1.4127         estimate D2E/DX2                !
 ! R66   R(53,55)                1.3693         estimate D2E/DX2                !
 ! R67   R(53,56)                1.4181         estimate D2E/DX2                !
 ! R68   R(53,60)                1.0866         estimate D2E/DX2                !
 ! R69   R(54,56)                1.4176         estimate D2E/DX2                !
 ! R70   R(54,57)                1.4127         estimate D2E/DX2                !
 ! R71   R(55,58)                1.0855         estimate D2E/DX2                !
 ! R72   R(56,65)                1.4181         estimate D2E/DX2                !
 ! R73   R(57,61)                1.3745         estimate D2E/DX2                !
 ! R74   R(57,62)                1.0855         estimate D2E/DX2                !
 ! R75   R(59,65)                1.0866         estimate D2E/DX2                !
 ! R76   R(61,63)                1.422          estimate D2E/DX2                !
 ! R77   R(63,64)                1.0855         estimate D2E/DX2                !
 ! R78   R(63,65)                1.3693         estimate D2E/DX2                !
 ! R79   R(66,68)                1.4099         estimate D2E/DX2                !
 ! R80   R(67,72)                1.411          estimate D2E/DX2                !
 ! R81   R(68,69)                1.0974         estimate D2E/DX2                !
 ! R82   R(68,70)                1.0975         estimate D2E/DX2                !
 ! R83   R(68,71)                1.091          estimate D2E/DX2                !
 ! R84   R(72,73)                1.0975         estimate D2E/DX2                !
 ! R85   R(72,74)                1.091          estimate D2E/DX2                !
 ! R86   R(72,75)                1.0964         estimate D2E/DX2                !
 ! R87   R(78,79)                1.085          estimate D2E/DX2                !
 ! R88   R(78,80)                1.3275         estimate D2E/DX2                !
 ! R89   R(80,81)                1.086          estimate D2E/DX2                !
 ! R90   R(80,82)                1.5033         estimate D2E/DX2                !
 ! R91   R(82,83)                1.0957         estimate D2E/DX2                !
 ! R92   R(82,84)                1.0973         estimate D2E/DX2                !
 ! A1    A(2,1,5)              111.7563         estimate D2E/DX2                !
 ! A2    A(2,1,16)             124.136          estimate D2E/DX2                !
 ! A3    A(5,1,16)             124.0932         estimate D2E/DX2                !
 ! A4    A(1,2,3)              103.7774         estimate D2E/DX2                !
 ! A5    A(1,2,66)             113.0895         estimate D2E/DX2                !
 ! A6    A(1,2,67)             113.8565         estimate D2E/DX2                !
 ! A7    A(3,2,66)             113.1497         estimate D2E/DX2                !
 ! A8    A(3,2,67)             113.9484         estimate D2E/DX2                !
 ! A9    A(66,2,67)             99.4587         estimate D2E/DX2                !
 ! A10   A(2,3,4)              112.4044         estimate D2E/DX2                !
 ! A11   A(2,3,6)              123.7077         estimate D2E/DX2                !
 ! A12   A(4,3,6)              123.764          estimate D2E/DX2                !
 ! A13   A(3,4,5)              105.5456         estimate D2E/DX2                !
 ! A14   A(3,4,76)             110.0221         estimate D2E/DX2                !
 ! A15   A(3,4,82)             115.116          estimate D2E/DX2                !
 ! A16   A(5,4,76)             110.247          estimate D2E/DX2                !
 ! A17   A(5,4,82)             106.4084         estimate D2E/DX2                !
 ! A18   A(76,4,82)            109.336          estimate D2E/DX2                !
 ! A19   A(1,5,4)              106.3641         estimate D2E/DX2                !
 ! A20   A(1,5,77)             110.5771         estimate D2E/DX2                !
 ! A21   A(1,5,78)             114.3529         estimate D2E/DX2                !
 ! A22   A(4,5,77)             111.4452         estimate D2E/DX2                !
 ! A23   A(4,5,78)             103.7304         estimate D2E/DX2                !
 ! A24   A(77,5,78)            110.1343         estimate D2E/DX2                !
 ! A25   A(3,6,8)              120.9214         estimate D2E/DX2                !
 ! A26   A(3,6,9)              121.6257         estimate D2E/DX2                !
 ! A27   A(8,6,9)              117.4516         estimate D2E/DX2                !
 ! A28   A(10,7,11)            119.6679         estimate D2E/DX2                !
 ! A29   A(10,7,15)            119.5289         estimate D2E/DX2                !
 ! A30   A(11,7,15)            120.8032         estimate D2E/DX2                !
 ! A31   A(6,8,11)             121.154          estimate D2E/DX2                !
 ! A32   A(6,8,12)             119.6351         estimate D2E/DX2                !
 ! A33   A(11,8,12)            119.2079         estimate D2E/DX2                !
 ! A34   A(6,9,10)             121.222          estimate D2E/DX2                !
 ! A35   A(6,9,13)             119.2661         estimate D2E/DX2                !
 ! A36   A(10,9,13)            119.5119         estimate D2E/DX2                !
 ! A37   A(7,10,9)             119.8406         estimate D2E/DX2                !
 ! A38   A(7,10,28)            120.7098         estimate D2E/DX2                !
 ! A39   A(9,10,28)            119.4493         estimate D2E/DX2                !
 ! A40   A(7,11,8)             120.6639         estimate D2E/DX2                !
 ! A41   A(7,11,14)            119.6848         estimate D2E/DX2                !
 ! A42   A(8,11,14)            119.6511         estimate D2E/DX2                !
 ! A43   A(1,16,18)            121.5982         estimate D2E/DX2                !
 ! A44   A(1,16,19)            120.9553         estimate D2E/DX2                !
 ! A45   A(18,16,19)           117.4463         estimate D2E/DX2                !
 ! A46   A(20,17,21)           119.6656         estimate D2E/DX2                !
 ! A47   A(20,17,25)           120.8031         estimate D2E/DX2                !
 ! A48   A(21,17,25)           119.5313         estimate D2E/DX2                !
 ! A49   A(16,18,21)           121.2138         estimate D2E/DX2                !
 ! A50   A(16,18,22)           119.2588         estimate D2E/DX2                !
 ! A51   A(21,18,22)           119.5269         estimate D2E/DX2                !
 ! A52   A(16,19,20)           121.1557         estimate D2E/DX2                !
 ! A53   A(16,19,23)           119.6623         estimate D2E/DX2                !
 ! A54   A(20,19,23)           119.1788         estimate D2E/DX2                !
 ! A55   A(17,20,19)           120.6659         estimate D2E/DX2                !
 ! A56   A(17,20,24)           119.6842         estimate D2E/DX2                !
 ! A57   A(19,20,24)           119.6498         estimate D2E/DX2                !
 ! A58   A(17,21,18)           119.8524         estimate D2E/DX2                !
 ! A59   A(17,21,26)           120.7182         estimate D2E/DX2                !
 ! A60   A(18,21,26)           119.4294         estimate D2E/DX2                !
 ! A61   A(29,30,32)           122.76           estimate D2E/DX2                !
 ! A62   A(29,30,33)           118.1644         estimate D2E/DX2                !
 ! A63   A(32,30,33)           119.0726         estimate D2E/DX2                !
 ! A64   A(34,31,35)           120.5259         estimate D2E/DX2                !
 ! A65   A(34,31,39)           119.7861         estimate D2E/DX2                !
 ! A66   A(35,31,39)           119.6704         estimate D2E/DX2                !
 ! A67   A(30,32,35)           119.5699         estimate D2E/DX2                !
 ! A68   A(30,32,36)           119.7147         estimate D2E/DX2                !
 ! A69   A(35,32,36)           120.7152         estimate D2E/DX2                !
 ! A70   A(30,33,34)           121.7873         estimate D2E/DX2                !
 ! A71   A(30,33,37)           118.2988         estimate D2E/DX2                !
 ! A72   A(34,33,37)           119.9085         estimate D2E/DX2                !
 ! A73   A(31,34,33)           118.2042         estimate D2E/DX2                !
 ! A74   A(31,34,61)           122.5885         estimate D2E/DX2                !
 ! A75   A(33,34,61)           119.2063         estimate D2E/DX2                !
 ! A76   A(31,35,32)           120.8242         estimate D2E/DX2                !
 ! A77   A(31,35,38)           119.5768         estimate D2E/DX2                !
 ! A78   A(32,35,38)           119.5942         estimate D2E/DX2                !
 ! A79   A(27,40,42)           118.1441         estimate D2E/DX2                !
 ! A80   A(27,40,43)           122.7835         estimate D2E/DX2                !
 ! A81   A(42,40,43)           119.0705         estimate D2E/DX2                !
 ! A82   A(44,41,45)           120.5198         estimate D2E/DX2                !
 ! A83   A(44,41,49)           119.6791         estimate D2E/DX2                !
 ! A84   A(45,41,49)           119.7839         estimate D2E/DX2                !
 ! A85   A(40,42,45)           121.7872         estimate D2E/DX2                !
 ! A86   A(40,42,46)           118.3048         estimate D2E/DX2                !
 ! A87   A(45,42,46)           119.9017         estimate D2E/DX2                !
 ! A88   A(40,43,44)           119.5715         estimate D2E/DX2                !
 ! A89   A(40,43,47)           119.7152         estimate D2E/DX2                !
 ! A90   A(44,43,47)           120.7131         estimate D2E/DX2                !
 ! A91   A(41,44,43)           120.8258         estimate D2E/DX2                !
 ! A92   A(41,44,48)           119.5772         estimate D2E/DX2                !
 ! A93   A(43,44,48)           119.5925         estimate D2E/DX2                !
 ! A94   A(41,45,42)           118.2107         estimate D2E/DX2                !
 ! A95   A(41,45,50)           122.6054         estimate D2E/DX2                !
 ! A96   A(42,45,50)           119.1833         estimate D2E/DX2                !
 ! A97   A(45,50,52)           119.8442         estimate D2E/DX2                !
 ! A98   A(45,50,55)           121.8342         estimate D2E/DX2                !
 ! A99   A(52,50,55)           118.2921         estimate D2E/DX2                !
 ! A100  A(50,52,51)           120.0533         estimate D2E/DX2                !
 ! A101  A(50,52,54)           121.8563         estimate D2E/DX2                !
 ! A102  A(51,52,54)           118.0842         estimate D2E/DX2                !
 ! A103  A(55,53,56)           121.0491         estimate D2E/DX2                !
 ! A104  A(55,53,60)           120.0646         estimate D2E/DX2                !
 ! A105  A(56,53,60)           118.8603         estimate D2E/DX2                !
 ! A106  A(52,54,56)           119.4195         estimate D2E/DX2                !
 ! A107  A(52,54,57)           121.1201         estimate D2E/DX2                !
 ! A108  A(56,54,57)           119.4206         estimate D2E/DX2                !
 ! A109  A(50,55,53)           121.1132         estimate D2E/DX2                !
 ! A110  A(50,55,58)           119.1489         estimate D2E/DX2                !
 ! A111  A(53,55,58)           119.7064         estimate D2E/DX2                !
 ! A112  A(53,56,54)           118.1931         estimate D2E/DX2                !
 ! A113  A(53,56,65)           123.5981         estimate D2E/DX2                !
 ! A114  A(54,56,65)           118.1893         estimate D2E/DX2                !
 ! A115  A(54,57,61)           121.8613         estimate D2E/DX2                !
 ! A116  A(54,57,62)           118.0725         estimate D2E/DX2                !
 ! A117  A(61,57,62)           120.0604         estimate D2E/DX2                !
 ! A118  A(34,61,57)           119.8488         estimate D2E/DX2                !
 ! A119  A(34,61,63)           121.8393         estimate D2E/DX2                !
 ! A120  A(57,61,63)           118.2845         estimate D2E/DX2                !
 ! A121  A(61,63,64)           119.1537         estimate D2E/DX2                !
 ! A122  A(61,63,65)           121.1172         estimate D2E/DX2                !
 ! A123  A(64,63,65)           119.6982         estimate D2E/DX2                !
 ! A124  A(56,65,59)           118.8597         estimate D2E/DX2                !
 ! A125  A(56,65,63)           121.0513         estimate D2E/DX2                !
 ! A126  A(59,65,63)           120.0632         estimate D2E/DX2                !
 ! A127  A(2,66,68)            115.966          estimate D2E/DX2                !
 ! A128  A(2,67,72)            116.0198         estimate D2E/DX2                !
 ! A129  A(66,68,69)           111.9677         estimate D2E/DX2                !
 ! A130  A(66,68,70)           111.9445         estimate D2E/DX2                !
 ! A131  A(66,68,71)           106.0697         estimate D2E/DX2                !
 ! A132  A(69,68,70)           109.0732         estimate D2E/DX2                !
 ! A133  A(69,68,71)           108.8444         estimate D2E/DX2                !
 ! A134  A(70,68,71)           108.821          estimate D2E/DX2                !
 ! A135  A(67,72,73)           111.822          estimate D2E/DX2                !
 ! A136  A(67,72,74)           106.0205         estimate D2E/DX2                !
 ! A137  A(67,72,75)           112.0215         estimate D2E/DX2                !
 ! A138  A(73,72,74)           108.9572         estimate D2E/DX2                !
 ! A139  A(73,72,75)           108.7497         estimate D2E/DX2                !
 ! A140  A(74,72,75)           109.1799         estimate D2E/DX2                !
 ! A141  A(5,78,79)            122.0774         estimate D2E/DX2                !
 ! A142  A(5,78,80)            112.6085         estimate D2E/DX2                !
 ! A143  A(79,78,80)           125.3061         estimate D2E/DX2                !
 ! A144  A(78,80,81)           124.7891         estimate D2E/DX2                !
 ! A145  A(78,80,82)           112.956          estimate D2E/DX2                !
 ! A146  A(81,80,82)           122.2549         estimate D2E/DX2                !
 ! A147  A(4,82,80)            103.9569         estimate D2E/DX2                !
 ! A148  A(4,82,83)            111.9018         estimate D2E/DX2                !
 ! A149  A(4,82,84)            111.5228         estimate D2E/DX2                !
 ! A150  A(80,82,83)           112.0395         estimate D2E/DX2                !
 ! A151  A(80,82,84)           111.1899         estimate D2E/DX2                !
 ! A152  A(83,82,84)           106.3548         estimate D2E/DX2                !
 ! A153  L(21,26,27,10,-1)     177.9667         estimate D2E/DX2                !
 ! A154  L(26,27,40,28,-1)     174.0733         estimate D2E/DX2                !
 ! A155  L(10,28,29,21,-1)     177.9934         estimate D2E/DX2                !
 ! A156  L(28,29,30,26,-1)     174.1017         estimate D2E/DX2                !
 ! A157  L(21,26,27,10,-2)     180.0341         estimate D2E/DX2                !
 ! A158  L(26,27,40,28,-2)     179.6902         estimate D2E/DX2                !
 ! A159  L(10,28,29,21,-2)     179.7384         estimate D2E/DX2                !
 ! A160  L(28,29,30,26,-2)     180.066          estimate D2E/DX2                !
 ! D1    D(5,1,2,3)             -2.8295         estimate D2E/DX2                !
 ! D2    D(5,1,2,66)          -125.8246         estimate D2E/DX2                !
 ! D3    D(5,1,2,67)           121.6019         estimate D2E/DX2                !
 ! D4    D(16,1,2,3)           175.8319         estimate D2E/DX2                !
 ! D5    D(16,1,2,66)           52.8369         estimate D2E/DX2                !
 ! D6    D(16,1,2,67)          -59.7366         estimate D2E/DX2                !
 ! D7    D(2,1,5,4)              4.0543         estimate D2E/DX2                !
 ! D8    D(2,1,5,77)           125.2024         estimate D2E/DX2                !
 ! D9    D(2,1,5,78)          -109.8019         estimate D2E/DX2                !
 ! D10   D(16,1,5,4)          -174.6078         estimate D2E/DX2                !
 ! D11   D(16,1,5,77)          -53.4598         estimate D2E/DX2                !
 ! D12   D(16,1,5,78)           71.536          estimate D2E/DX2                !
 ! D13   D(2,1,16,18)            5.5442         estimate D2E/DX2                !
 ! D14   D(2,1,16,19)         -174.2669         estimate D2E/DX2                !
 ! D15   D(5,1,16,18)         -175.9571         estimate D2E/DX2                !
 ! D16   D(5,1,16,19)            4.2319         estimate D2E/DX2                !
 ! D17   D(1,2,3,4)              0.4449         estimate D2E/DX2                !
 ! D18   D(1,2,3,6)           -175.6387         estimate D2E/DX2                !
 ! D19   D(66,2,3,4)           123.4003         estimate D2E/DX2                !
 ! D20   D(66,2,3,6)           -52.6834         estimate D2E/DX2                !
 ! D21   D(67,2,3,4)          -123.9271         estimate D2E/DX2                !
 ! D22   D(67,2,3,6)            59.9893         estimate D2E/DX2                !
 ! D23   D(1,2,66,68)           58.9543         estimate D2E/DX2                !
 ! D24   D(3,2,66,68)          -58.6807         estimate D2E/DX2                !
 ! D25   D(67,2,66,68)        -179.9309         estimate D2E/DX2                !
 ! D26   D(1,2,67,72)          -60.6226         estimate D2E/DX2                !
 ! D27   D(3,2,67,72)           58.1507         estimate D2E/DX2                !
 ! D28   D(66,2,67,72)         178.8207         estimate D2E/DX2                !
 ! D29   D(2,3,4,5)              1.9364         estimate D2E/DX2                !
 ! D30   D(2,3,4,76)          -116.9902         estimate D2E/DX2                !
 ! D31   D(2,3,4,82)           118.9518         estimate D2E/DX2                !
 ! D32   D(6,3,4,5)            178.0174         estimate D2E/DX2                !
 ! D33   D(6,3,4,76)            59.0909         estimate D2E/DX2                !
 ! D34   D(6,3,4,82)           -64.9671         estimate D2E/DX2                !
 ! D35   D(2,3,6,8)            172.3142         estimate D2E/DX2                !
 ! D36   D(2,3,6,9)             -7.2617         estimate D2E/DX2                !
 ! D37   D(4,3,6,8)             -3.3296         estimate D2E/DX2                !
 ! D38   D(4,3,6,9)            177.0945         estimate D2E/DX2                !
 ! D39   D(3,4,5,1)             -3.5382         estimate D2E/DX2                !
 ! D40   D(3,4,5,77)          -124.1285         estimate D2E/DX2                !
 ! D41   D(3,4,5,78)           117.4027         estimate D2E/DX2                !
 ! D42   D(76,4,5,1)           115.2386         estimate D2E/DX2                !
 ! D43   D(76,4,5,77)           -5.3517         estimate D2E/DX2                !
 ! D44   D(76,4,5,78)         -123.8205         estimate D2E/DX2                !
 ! D45   D(82,4,5,1)          -126.3031         estimate D2E/DX2                !
 ! D46   D(82,4,5,77)          113.1066         estimate D2E/DX2                !
 ! D47   D(82,4,5,78)           -5.3622         estimate D2E/DX2                !
 ! D48   D(3,4,82,80)         -110.8269         estimate D2E/DX2                !
 ! D49   D(3,4,82,83)           10.2813         estimate D2E/DX2                !
 ! D50   D(3,4,82,84)          129.2798         estimate D2E/DX2                !
 ! D51   D(5,4,82,80)            5.6989         estimate D2E/DX2                !
 ! D52   D(5,4,82,83)          126.8071         estimate D2E/DX2                !
 ! D53   D(5,4,82,84)         -114.1944         estimate D2E/DX2                !
 ! D54   D(76,4,82,80)         124.7545         estimate D2E/DX2                !
 ! D55   D(76,4,82,83)        -114.1373         estimate D2E/DX2                !
 ! D56   D(76,4,82,84)           4.8612         estimate D2E/DX2                !
 ! D57   D(1,5,78,79)          -60.5115         estimate D2E/DX2                !
 ! D58   D(1,5,78,80)          118.5121         estimate D2E/DX2                !
 ! D59   D(4,5,78,79)         -175.9124         estimate D2E/DX2                !
 ! D60   D(4,5,78,80)            3.1112         estimate D2E/DX2                !
 ! D61   D(77,5,78,79)          64.7179         estimate D2E/DX2                !
 ! D62   D(77,5,78,80)        -116.2585         estimate D2E/DX2                !
 ! D63   D(3,6,8,11)          -179.6607         estimate D2E/DX2                !
 ! D64   D(3,6,8,12)            -0.3029         estimate D2E/DX2                !
 ! D65   D(9,6,8,11)            -0.0677         estimate D2E/DX2                !
 ! D66   D(9,6,8,12)           179.2902         estimate D2E/DX2                !
 ! D67   D(3,6,9,10)           179.6866         estimate D2E/DX2                !
 ! D68   D(3,6,9,13)            -0.4082         estimate D2E/DX2                !
 ! D69   D(8,6,9,10)             0.0966         estimate D2E/DX2                !
 ! D70   D(8,6,9,13)          -179.9982         estimate D2E/DX2                !
 ! D71   D(11,7,10,9)           -0.1113         estimate D2E/DX2                !
 ! D72   D(11,7,10,28)         179.6965         estimate D2E/DX2                !
 ! D73   D(15,7,10,9)          179.9876         estimate D2E/DX2                !
 ! D74   D(15,7,10,28)          -0.2047         estimate D2E/DX2                !
 ! D75   D(10,7,11,8)            0.141          estimate D2E/DX2                !
 ! D76   D(10,7,11,14)        -179.7032         estimate D2E/DX2                !
 ! D77   D(15,7,11,8)         -179.9591         estimate D2E/DX2                !
 ! D78   D(15,7,11,14)           0.1966         estimate D2E/DX2                !
 ! D79   D(6,8,11,7)            -0.0504         estimate D2E/DX2                !
 ! D80   D(6,8,11,14)          179.7939         estimate D2E/DX2                !
 ! D81   D(12,8,11,7)         -179.4109         estimate D2E/DX2                !
 ! D82   D(12,8,11,14)           0.4334         estimate D2E/DX2                !
 ! D83   D(6,9,10,7)            -0.0087         estimate D2E/DX2                !
 ! D84   D(6,9,10,28)         -179.8189         estimate D2E/DX2                !
 ! D85   D(13,9,10,7)         -179.9137         estimate D2E/DX2                !
 ! D86   D(13,9,10,28)           0.2761         estimate D2E/DX2                !
 ! D87   D(7,10,30,32)          -8.6561         estimate D2E/DX2                !
 ! D88   D(7,10,30,33)         173.3152         estimate D2E/DX2                !
 ! D89   D(9,10,30,32)         170.6062         estimate D2E/DX2                !
 ! D90   D(9,10,30,33)          -7.4225         estimate D2E/DX2                !
 ! D91   D(1,16,18,21)        -179.956          estimate D2E/DX2                !
 ! D92   D(1,16,18,22)           0.3076         estimate D2E/DX2                !
 ! D93   D(19,16,18,21)         -0.1386         estimate D2E/DX2                !
 ! D94   D(19,16,18,22)       -179.875          estimate D2E/DX2                !
 ! D95   D(1,16,19,20)         179.8274         estimate D2E/DX2                !
 ! D96   D(1,16,19,23)           0.4866         estimate D2E/DX2                !
 ! D97   D(18,16,19,20)          0.0088         estimate D2E/DX2                !
 ! D98   D(18,16,19,23)       -179.3321         estimate D2E/DX2                !
 ! D99   D(21,17,20,19)         -0.111          estimate D2E/DX2                !
 ! D100  D(21,17,20,24)        179.7931         estimate D2E/DX2                !
 ! D101  D(25,17,20,19)        179.8803         estimate D2E/DX2                !
 ! D102  D(25,17,20,24)         -0.2157         estimate D2E/DX2                !
 ! D103  D(20,17,21,18)         -0.0182         estimate D2E/DX2                !
 ! D104  D(20,17,21,26)        179.9612         estimate D2E/DX2                !
 ! D105  D(25,17,21,18)        179.9904         estimate D2E/DX2                !
 ! D106  D(25,17,21,26)         -0.0301         estimate D2E/DX2                !
 ! D107  D(16,18,21,17)          0.1448         estimate D2E/DX2                !
 ! D108  D(16,18,21,26)       -179.8349         estimate D2E/DX2                !
 ! D109  D(22,18,21,17)        179.8804         estimate D2E/DX2                !
 ! D110  D(22,18,21,26)         -0.0993         estimate D2E/DX2                !
 ! D111  D(16,19,20,17)          0.1156         estimate D2E/DX2                !
 ! D112  D(16,19,20,24)       -179.7885         estimate D2E/DX2                !
 ! D113  D(23,19,20,17)        179.4596         estimate D2E/DX2                !
 ! D114  D(23,19,20,24)         -0.4445         estimate D2E/DX2                !
 ! D115  D(17,21,40,42)       -170.8013         estimate D2E/DX2                !
 ! D116  D(17,21,40,43)         10.8391         estimate D2E/DX2                !
 ! D117  D(18,21,40,42)          9.3703         estimate D2E/DX2                !
 ! D118  D(18,21,40,43)       -168.9893         estimate D2E/DX2                !
 ! D119  D(29,30,32,35)       -178.952          estimate D2E/DX2                !
 ! D120  D(29,30,32,36)          0.9078         estimate D2E/DX2                !
 ! D121  D(33,30,32,35)          0.4051         estimate D2E/DX2                !
 ! D122  D(33,30,32,36)       -179.7351         estimate D2E/DX2                !
 ! D123  D(29,30,33,34)        178.0207         estimate D2E/DX2                !
 ! D124  D(29,30,33,37)         -2.8278         estimate D2E/DX2                !
 ! D125  D(32,30,33,34)         -1.3661         estimate D2E/DX2                !
 ! D126  D(32,30,33,37)        177.7854         estimate D2E/DX2                !
 ! D127  D(35,31,34,33)         -0.5162         estimate D2E/DX2                !
 ! D128  D(35,31,34,61)        179.1281         estimate D2E/DX2                !
 ! D129  D(39,31,34,33)       -178.9871         estimate D2E/DX2                !
 ! D130  D(39,31,34,61)          0.6572         estimate D2E/DX2                !
 ! D131  D(34,31,35,32)         -0.408          estimate D2E/DX2                !
 ! D132  D(34,31,35,38)       -179.6066         estimate D2E/DX2                !
 ! D133  D(39,31,35,32)        178.0646         estimate D2E/DX2                !
 ! D134  D(39,31,35,38)         -1.1339         estimate D2E/DX2                !
 ! D135  D(30,32,35,31)          0.4634         estimate D2E/DX2                !
 ! D136  D(30,32,35,38)        179.6619         estimate D2E/DX2                !
 ! D137  D(36,32,35,31)       -179.3949         estimate D2E/DX2                !
 ! D138  D(36,32,35,38)         -0.1965         estimate D2E/DX2                !
 ! D139  D(30,33,34,31)          1.4126         estimate D2E/DX2                !
 ! D140  D(30,33,34,61)       -178.2441         estimate D2E/DX2                !
 ! D141  D(37,33,34,31)       -177.7255         estimate D2E/DX2                !
 ! D142  D(37,33,34,61)          2.6178         estimate D2E/DX2                !
 ! D143  D(31,34,61,57)       -146.1688         estimate D2E/DX2                !
 ! D144  D(31,34,61,63)         35.7697         estimate D2E/DX2                !
 ! D145  D(33,34,61,57)         33.4721         estimate D2E/DX2                !
 ! D146  D(33,34,61,63)       -144.5894         estimate D2E/DX2                !
 ! D147  D(27,40,42,45)       -178.2035         estimate D2E/DX2                !
 ! D148  D(27,40,42,46)          2.7126         estimate D2E/DX2                !
 ! D149  D(43,40,42,45)          1.3021         estimate D2E/DX2                !
 ! D150  D(43,40,42,46)       -177.7818         estimate D2E/DX2                !
 ! D151  D(27,40,43,44)        179.102          estimate D2E/DX2                !
 ! D152  D(27,40,43,47)         -0.7804         estimate D2E/DX2                !
 ! D153  D(42,40,43,44)         -0.3793         estimate D2E/DX2                !
 ! D154  D(42,40,43,47)        179.7382         estimate D2E/DX2                !
 ! D155  D(45,41,44,43)          0.3739         estimate D2E/DX2                !
 ! D156  D(45,41,44,48)        179.5996         estimate D2E/DX2                !
 ! D157  D(49,41,44,43)       -178.1133         estimate D2E/DX2                !
 ! D158  D(49,41,44,48)          1.1124         estimate D2E/DX2                !
 ! D159  D(44,41,45,42)          0.5134         estimate D2E/DX2                !
 ! D160  D(44,41,45,50)       -179.1932         estimate D2E/DX2                !
 ! D161  D(49,41,45,42)        178.999          estimate D2E/DX2                !
 ! D162  D(49,41,45,50)         -0.7076         estimate D2E/DX2                !
 ! D163  D(40,42,45,41)         -1.3604         estimate D2E/DX2                !
 ! D164  D(40,42,45,50)        178.3565         estimate D2E/DX2                !
 ! D165  D(46,42,45,41)        177.7091         estimate D2E/DX2                !
 ! D166  D(46,42,45,50)         -2.5739         estimate D2E/DX2                !
 ! D167  D(40,43,44,41)         -0.4411         estimate D2E/DX2                !
 ! D168  D(40,43,44,48)       -179.6667         estimate D2E/DX2                !
 ! D169  D(47,43,44,41)        179.4401         estimate D2E/DX2                !
 ! D170  D(47,43,44,48)          0.2145         estimate D2E/DX2                !
 ! D171  D(41,45,50,52)        146.0144         estimate D2E/DX2                !
 ! D172  D(41,45,50,55)        -35.9954         estimate D2E/DX2                !
 ! D173  D(42,45,50,52)        -33.6895         estimate D2E/DX2                !
 ! D174  D(42,45,50,55)        144.3007         estimate D2E/DX2                !
 ! D175  D(45,50,52,51)         -4.1336         estimate D2E/DX2                !
 ! D176  D(45,50,52,54)        174.9446         estimate D2E/DX2                !
 ! D177  D(55,50,52,51)        177.8055         estimate D2E/DX2                !
 ! D178  D(55,50,52,54)         -3.1163         estimate D2E/DX2                !
 ! D179  D(45,50,55,53)       -176.3953         estimate D2E/DX2                !
 ! D180  D(45,50,55,58)          1.5572         estimate D2E/DX2                !
 ! D181  D(52,50,55,53)          1.625          estimate D2E/DX2                !
 ! D182  D(52,50,55,58)        179.5775         estimate D2E/DX2                !
 ! D183  D(50,52,54,56)          2.1322         estimate D2E/DX2                !
 ! D184  D(50,52,54,57)       -175.5606         estimate D2E/DX2                !
 ! D185  D(51,52,54,56)       -178.7722         estimate D2E/DX2                !
 ! D186  D(51,52,54,57)          3.535          estimate D2E/DX2                !
 ! D187  D(56,53,55,50)          0.8545         estimate D2E/DX2                !
 ! D188  D(56,53,55,58)       -177.0867         estimate D2E/DX2                !
 ! D189  D(60,53,55,50)        178.9813         estimate D2E/DX2                !
 ! D190  D(60,53,55,58)          1.0401         estimate D2E/DX2                !
 ! D191  D(55,53,56,54)         -1.8403         estimate D2E/DX2                !
 ! D192  D(55,53,56,65)        176.5221         estimate D2E/DX2                !
 ! D193  D(60,53,56,54)       -179.9892         estimate D2E/DX2                !
 ! D194  D(60,53,56,65)         -1.6268         estimate D2E/DX2                !
 ! D195  D(52,54,56,53)          0.3875         estimate D2E/DX2                !
 ! D196  D(52,54,56,65)       -178.065          estimate D2E/DX2                !
 ! D197  D(57,54,56,53)        178.12           estimate D2E/DX2                !
 ! D198  D(57,54,56,65)         -0.3325         estimate D2E/DX2                !
 ! D199  D(52,54,57,61)        175.5279         estimate D2E/DX2                !
 ! D200  D(52,54,57,62)         -3.594          estimate D2E/DX2                !
 ! D201  D(56,54,57,61)         -2.165          estimate D2E/DX2                !
 ! D202  D(56,54,57,62)        178.7132         estimate D2E/DX2                !
 ! D203  D(53,56,65,59)          1.6026         estimate D2E/DX2                !
 ! D204  D(53,56,65,63)       -176.5507         estimate D2E/DX2                !
 ! D205  D(54,56,65,59)        179.9651         estimate D2E/DX2                !
 ! D206  D(54,56,65,63)          1.8118         estimate D2E/DX2                !
 ! D207  D(54,57,61,34)       -175.031          estimate D2E/DX2                !
 ! D208  D(54,57,61,63)          3.0989         estimate D2E/DX2                !
 ! D209  D(62,57,61,34)          4.0737         estimate D2E/DX2                !
 ! D210  D(62,57,61,63)       -177.7964         estimate D2E/DX2                !
 ! D211  D(34,61,63,64)         -1.4635         estimate D2E/DX2                !
 ! D212  D(34,61,63,65)        176.5109         estimate D2E/DX2                !
 ! D213  D(57,61,63,64)       -179.5542         estimate D2E/DX2                !
 ! D214  D(57,61,63,65)         -1.5798         estimate D2E/DX2                !
 ! D215  D(61,63,65,56)         -0.8764         estimate D2E/DX2                !
 ! D216  D(61,63,65,59)       -179.0077         estimate D2E/DX2                !
 ! D217  D(64,63,65,56)        177.0871         estimate D2E/DX2                !
 ! D218  D(64,63,65,59)         -1.0442         estimate D2E/DX2                !
 ! D219  D(2,66,68,69)         -61.174          estimate D2E/DX2                !
 ! D220  D(2,66,68,70)          61.6732         estimate D2E/DX2                !
 ! D221  D(2,66,68,71)        -179.7709         estimate D2E/DX2                !
 ! D222  D(2,67,72,73)         -62.8982         estimate D2E/DX2                !
 ! D223  D(2,67,72,74)         178.4785         estimate D2E/DX2                !
 ! D224  D(2,67,72,75)          59.4762         estimate D2E/DX2                !
 ! D225  D(5,78,80,81)        -179.4308         estimate D2E/DX2                !
 ! D226  D(5,78,80,82)           0.6282         estimate D2E/DX2                !
 ! D227  D(79,78,80,81)         -0.4446         estimate D2E/DX2                !
 ! D228  D(79,78,80,82)        179.6144         estimate D2E/DX2                !
 ! D229  D(78,80,82,4)          -4.0709         estimate D2E/DX2                !
 ! D230  D(78,80,82,83)       -125.0868         estimate D2E/DX2                !
 ! D231  D(78,80,82,84)        116.0478         estimate D2E/DX2                !
 ! D232  D(81,80,82,4)         175.9864         estimate D2E/DX2                !
 ! D233  D(81,80,82,83)         54.9704         estimate D2E/DX2                !
 ! D234  D(81,80,82,84)        -63.8949         estimate D2E/DX2                !
 --------------------------------------------------------------------------------
 Trust Radius=3.00D-01 FncErr=1.00D-07 GrdErr=1.00D-06 EigMax=2.50D+02 EigMin=1.00D-04
 Number of steps in this run=    496 maximum allowed number of steps=    504.
 GradGradGradGradGradGradGradGradGradGradGradGradGradGradGradGradGradGrad

 Leave Link  103 at Fri Jun 26 14:54:55 2020, MaxMem=  1342177280 cpu:               0.1 elap:               0.0
 (Enter /home/wongzit/g16/l202.exe)
 Stoichiometry    C48H34O2
 Framework group  C1[X(C48H34O2)]
 Deg. of freedom   246
 Full point group                 C1      NOp   1
 Largest Abelian subgroup         C1      NOp   1
 Largest concise Abelian subgroup C1      NOp   1
                         Standard orientation:                         
 ---------------------------------------------------------------------
 Center     Atomic      Atomic             Coordinates (Angstroms)
 Number     Number       Type             X           Y           Z
 ---------------------------------------------------------------------
      1          6           0       -4.161115   -1.247102   -0.064704
      2          6           0       -3.243759   -0.043133   -0.110000
      3          6           0       -4.194658    1.136625   -0.077016
      4          6           0       -5.631226    0.711177   -0.003705
      5          6           0       -5.602956   -0.844175    0.062230
      6          6           0       -3.774583    2.496587   -0.192831
      7          6           0       -2.969974    5.194949   -0.436698
      8          6           0       -4.721593    3.543039   -0.316685
      9          6           0       -2.405479    2.852160   -0.197633
     10          6           0       -2.004582    4.182245   -0.317656
     11          6           0       -4.319548    4.862409   -0.436243
     12          1           0       -5.780339    3.309362   -0.328770
     13          1           0       -1.657373    2.076475   -0.104839
     14          1           0       -5.066057    5.644683   -0.533125
     15          1           0       -2.652561    6.227669   -0.529548
     16          6           0       -3.714052   -2.598089   -0.161514
     17          6           0       -2.853738   -5.283207   -0.358655
     18          6           0       -2.337319   -2.922827   -0.194607
     19          6           0       -4.639567   -3.668818   -0.232354
     20          6           0       -4.210298   -4.981250   -0.329955
     21          6           0       -1.909236   -4.246184   -0.290278
     22          1           0       -1.605347   -2.128416   -0.140301
     23          1           0       -5.703576   -3.460080   -0.220841
     24          1           0       -4.940730   -5.782446   -0.386193
     25          1           0       -2.515001   -6.310610   -0.433121
     26          6           0       -0.507914   -4.531308   -0.317192
     27          6           0        0.683945   -4.730060   -0.340914
     28          6           0       -0.609774    4.498609   -0.322064
     29          6           0        0.577456    4.724489   -0.330884
     30          6           0        2.002197    4.845976   -0.339761
     31          6           0        4.791788    4.941900   -0.377424
     32          6           0        2.657768    6.047887   -0.628148
     33          6           0        2.763026    3.707608   -0.060122
     34          6           0        4.156722    3.730621   -0.088219
     35          6           0        4.045565    6.085733   -0.639584
     36          1           0        2.077519    6.938767   -0.842439
     37          1           0        2.242847    2.792555    0.197274
     38          1           0        4.554623    7.016781   -0.868710
     39          1           0        5.875571    4.985343   -0.422246
     40          6           0        2.111038   -4.818323   -0.361854
     41          6           0        4.901934   -4.849655   -0.415352
     42          6           0        2.847058   -3.664708   -0.078292
     43          6           0        2.792466   -6.002545   -0.663074
     44          6           0        4.180710   -6.008275   -0.682541
     45          6           0        4.240722   -3.655573   -0.113594
     46          1           0        2.307553   -2.763803    0.189078
     47          1           0        2.231702   -6.905048   -0.880582
     48          1           0        4.709722   -6.925616   -0.921548
     49          1           0        5.986204   -4.867800   -0.465747
     50          6           0        4.963126   -2.389108    0.161593
     51          1           0        3.485102   -1.173811   -0.787437
     52          6           0        4.412768   -1.190031   -0.223924
     53          6           0        6.821435   -1.187010    1.167230
     54          6           0        5.010796    0.045960    0.108290
     55          6           0        6.203327   -2.368888    0.857033
     56          6           0        6.236207    0.057381    0.820891
     57          6           0        4.384654    1.270316   -0.215048
     58          1           0        6.647088   -3.307462    1.174113
     59          1           0        7.730888    1.333748    1.724115
     60          1           0        7.760602   -1.190909    1.713642
     61          6           0        4.907058    2.478886    0.179669
     62          1           0        3.458092    1.236781   -0.779577
     63          6           0        6.146945    2.481893    0.875998
     64          1           0        6.568798    3.427920    1.200712
     65          6           0        6.792219    1.312298    1.177254
     66          8           0       -2.387472   -0.038110   -1.241805
     67          8           0       -2.268173   -0.025722    0.920642
     68          6           0       -3.025808   -0.050910   -2.498911
     69          1           0       -3.638871   -0.950322   -2.638900
     70          1           0       -3.652520    0.837353   -2.649738
     71          1           0       -2.227775   -0.049081   -3.242880
     72          6           0       -2.763610    0.000826    2.241541
     73          1           0       -3.339279    0.913263    2.443089
     74          1           0       -1.887874   -0.016665    2.892000
     75          1           0       -3.393467   -0.869171    2.461945
     76          1           0       -6.167852    1.043578   -0.901509
     77          1           0       -6.202015   -1.291908   -0.744569
     78          6           0       -6.223645   -1.158566    1.409126
     79          1           0       -6.291403   -2.172322    1.789812
     80          6           0       -6.638034   -0.070379    2.046560
     81          1           0       -7.103132   -0.066468    3.027954
     82          6           0       -6.400713    1.192401    1.266152
     83          1           0       -5.824627    1.927635    1.838991
     84          1           0       -7.347850    1.679563    1.002401
 ---------------------------------------------------------------------
 Rotational constants (GHZ):           0.0610904           0.0425238           0.0262499
 Leave Link  202 at Fri Jun 26 14:54:55 2020, MaxMem=  1342177280 cpu:               0.1 elap:               0.0
 (Enter /home/wongzit/g16/l301.exe)
 Standard basis: 6-31G(d) (6D, 7F)
 Ernie: Thresh=  0.10000D-02 Tol=  0.10000D-05 Strict=F.
 There are   818 symmetry adapted cartesian basis functions of A   symmetry.
 There are   818 symmetry adapted basis functions of A   symmetry.
   818 basis functions,  1536 primitive gaussians,   818 cartesian basis functions
   169 alpha electrons      169 beta electrons
       nuclear repulsion energy      5654.8697864508 Hartrees.
 IExCor= 4639 DFT=T Ex+Corr=wB97XD ExCW=0 ScaHFX=  1.000000
 ScaDFX=  1.000000  1.000000  1.000000  1.000000 ScalE2=  1.000000  1.000000
 IRadAn=      5 IRanWt=     -1 IRanGd=            0 ICorTp=0 IEmpDi=121
 HFx  wShort=  0.000000 wLong=  0.200000 cFull=  0.222036 cShort=  0.000000 cLong=  0.777964
 DFx  wShort=  0.000000 wLong=  0.200000 cFull=  0.000000 cShort=  0.000000 cLong=  1.000000
 NAtoms=   84 NActive=   84 NUniq=   84 SFac= 1.00D+00 NAtFMM=   60 NAOKFM=T Big=T
 Integral buffers will be    131072 words long.
 Raffenetti 2 integral format.
 Two-electron integral symmetry is turned on.
 R6Disp:  Grimme-D2 Dispersion energy=       -0.0767012318 Hartrees.
 Nuclear repulsion after empirical dispersion term =     5654.7930852190 Hartrees.
 Leave Link  301 at Fri Jun 26 14:54:55 2020, MaxMem=  1342177280 cpu:               0.2 elap:               0.1
 (Enter /home/wongzit/g16/l302.exe)
 NPDir=0 NMtPBC=     1 NCelOv=     1 NCel=       1 NClECP=     1 NCelD=      1
         NCelK=      1 NCelE2=     1 NClLst=     1 CellRange=     0.0.
 One-electron integrals computed using PRISM.
 One-electron integral symmetry used in STVInt
 NBasis=   818 RedAO= T EigKep=  8.40D-05  NBF=   818
 NBsUse=   818 1.00D-06 EigRej= -1.00D+00 NBFU=   818
 Precomputing XC quadrature grid using
 IXCGrd= 4 IRadAn=           5 IRanWt=          -1 IRanGd=           0 AccXCQ= 0.00D+00.
 Generated NRdTot=       0 NPtTot=           0 NUsed=           0 NTot=          32
 NSgBfM=   774   774   774   774   774 MxSgAt=    84 MxSgA2=    84.
 Leave Link  302 at Fri Jun 26 14:54:57 2020, MaxMem=  1342177280 cpu:               7.8 elap:               1.3
 (Enter /home/wongzit/g16/l303.exe)
 DipDrv:  MaxL=1.
 Leave Link  303 at Fri Jun 26 14:54:57 2020, MaxMem=  1342177280 cpu:               0.4 elap:               0.1
 (Enter /home/wongzit/g16/l401.exe)
 ExpMin= 1.61D-01 ExpMax= 5.48D+03 ExpMxC= 8.25D+02 IAcc=3 IRadAn=         5 AccDes= 0.00D+00
 Harris functional with IExCor= 4639 and IRadAn=       5 diagonalized for initial guess.
 HarFok:  IExCor= 4639 AccDes= 0.00D+00 IRadAn=         5 IDoV= 1 UseB2=F ITyADJ=14
 ICtDFT=  3500011 ScaDFX=  1.000000  1.000000  1.000000  1.000000
 FoFCou: FMM=F IPFlag=           0 FMFlag=      100000 FMFlg1=        2001
         NFxFlg=           0 DoJE=T BraDBF=F KetDBF=T FulRan=T
         wScrn=  0.000000 ICntrl=       500 IOpCl=  0 I1Cent=   200000004 NGrid=           0
         NMat0=    1 NMatS0=      1 NMatT0=    0 NMatD0=    1 NMtDS0=    0 NMtDT0=    0
 Petite list used in FoFCou.
 Harris En= -1909.87473154484    
 JPrj=0 DoOrth=F DoCkMO=T.
 Mixing orbitals, IMix= 1 IMixAn=  0 NRI=1 NE=  169 Coef=  7.07106781D-01  7.07106781D-01
 Mixing orbitals, IMix= 1 IMixAn=  0 NRI=1 NE=  169 Coef= -7.07106781D-01  7.07106781D-01
 Initial guess <Sx>= 0.0000 <Sy>= 0.0000 <Sz>= 0.0000 <S**2>= 1.0000 S= 0.6180
 Leave Link  401 at Fri Jun 26 14:55:03 2020, MaxMem=  1342177280 cpu:              36.4 elap:               6.4
 (Enter /home/wongzit/g16/l502.exe)
 Integral symmetry usage will be decided dynamically.
 UHF open shell SCF:
 Using DIIS extrapolation, IDIIS=  1040.
 NGot=  1342177280 LenX=  1340825360 LenY=  1340155418
 Requested convergence on RMS density matrix=1.00D-08 within 128 cycles.
 Requested convergence on MAX density matrix=1.00D-06.
 Requested convergence on             energy=1.00D-06.
 No special actions if energy rises.
 Fock matrices will be formed incrementally for  20 cycles.
 Integral accuracy reduced to 1.0D-05 until final iterations.

 Cycle   1  Pass 0  IDiag  1:
 FoFJK:  IHMeth= 1 ICntrl=       0 DoSepK=T KAlg= 0 I1Cent=           0 FoldK=F
 IRaf=         1 NMat=       1 IRICut=       1 DoRegI=T DoRafI=F ISym2E= 0 IDoP0=0 IntGTp=1.
 FoFCou: FMM=T IPFlag=           0 FMFlag=      100000 FMFlg1=        2001
         NFxFlg=           0 DoJE=T BraDBF=F KetDBF=F FulRan=T
         wScrn=  0.000000 ICntrl=       500 IOpCl=  0 I1Cent=           0 NGrid=           0
         NMat0=    1 NMatS0=      1 NMatT0=    0 NMatD0=    1 NMtDS0=    0 NMtDT0=    0
 Symmetry not used in FoFCou.
 FMM levels:  10  Number of levels for PrismC:   9
 E= -1998.75056462179    
 DIIS: error= 6.39D-02 at cycle   1 NSaved=   1.
 NSaved= 1 IEnMin= 1 EnMin= -1998.75056462179     IErMin= 1 ErrMin= 6.39D-02
 ErrMax= 6.39D-02  0.00D+00 EMaxC= 1.00D-01 BMatC= 7.52D+00 BMatP= 7.52D+00
 IDIUse=3 WtCom= 3.61D-01 WtEn= 6.39D-01
 Coeff-Com:  0.100D+01
 Coeff-En:   0.100D+01
 Coeff:      0.100D+01
 Gap=     0.207 Goal=   None    Shift=    0.000
 Gap=     0.205 Goal=   None    Shift=    0.000
 GapD=    0.205 DampG=1.000 DampE=0.500 DampFc=0.5000 IDamp=-1.
 Damping current iteration by 5.00D-01
 RMSDP=2.44D-03 MaxDP=2.26D-01              OVMax= 1.38D-01

 Cycle   2  Pass 0  IDiag  1:
 RMSU=  1.19D-03    CP:  9.78D-01
 E= -1998.96483378437     Delta-E=       -0.214269162579 Rises=F Damp=T
 DIIS: error= 3.17D-02 at cycle   2 NSaved=   2.
 NSaved= 2 IEnMin= 2 EnMin= -1998.96483378437     IErMin= 2 ErrMin= 3.17D-02
 ErrMax= 3.17D-02  0.00D+00 EMaxC= 1.00D-01 BMatC= 1.72D+00 BMatP= 7.52D+00
 IDIUse=3 WtCom= 6.83D-01 WtEn= 3.17D-01
 Coeff-Com: -0.714D+00 0.171D+01
 Coeff-En:   0.000D+00 0.100D+01
 Coeff:     -0.487D+00 0.149D+01
 Gap=     0.243 Goal=   None    Shift=    0.000
 Gap=     0.245 Goal=   None    Shift=    0.000
 RMSDP=1.10D-03 MaxDP=9.69D-02 DE=-2.14D-01 OVMax= 9.11D-02

 Cycle   3  Pass 0  IDiag  1:
 RMSU=  7.52D-04    CP:  9.62D-01  1.65D+00
 E= -1999.13911203572     Delta-E=       -0.174278251346 Rises=F Damp=F
 DIIS: error= 1.45D-02 at cycle   3 NSaved=   3.
 NSaved= 3 IEnMin= 3 EnMin= -1999.13911203572     IErMin= 3 ErrMin= 1.45D-02
 ErrMax= 1.45D-02  0.00D+00 EMaxC= 1.00D-01 BMatC= 2.69D-01 BMatP= 1.72D+00
 IDIUse=3 WtCom= 8.55D-01 WtEn= 1.45D-01
 Coeff-Com: -0.373D+00 0.763D+00 0.610D+00
 Coeff-En:   0.000D+00 0.000D+00 0.100D+01
 Coeff:     -0.319D+00 0.652D+00 0.667D+00
 Gap=     0.233 Goal=   None    Shift=    0.000
 Gap=     0.233 Goal=   None    Shift=    0.000
 RMSDP=4.53D-04 MaxDP=4.19D-02 DE=-1.74D-01 OVMax= 5.91D-02

 Cycle   4  Pass 0  IDiag  1:
 RMSU=  1.87D-04    CP:  9.57D-01  1.85D+00  5.54D-01
 E= -1999.19106047257     Delta-E=       -0.051948436853 Rises=F Damp=F
 DIIS: error= 3.64D-03 at cycle   4 NSaved=   4.
 NSaved= 4 IEnMin= 4 EnMin= -1999.19106047257     IErMin= 4 ErrMin= 3.64D-03
 ErrMax= 3.64D-03  0.00D+00 EMaxC= 1.00D-01 BMatC= 1.79D-02 BMatP= 2.69D-01
 IDIUse=3 WtCom= 9.64D-01 WtEn= 3.64D-02
 Coeff-Com: -0.110D+00 0.223D+00 0.307D+00 0.580D+00
 Coeff-En:   0.000D+00 0.000D+00 0.000D+00 0.100D+01
 Coeff:     -0.106D+00 0.215D+00 0.296D+00 0.595D+00
 Gap=     0.226 Goal=   None    Shift=    0.000
 Gap=     0.228 Goal=   None    Shift=    0.000
 RMSDP=9.12D-05 MaxDP=8.21D-03 DE=-5.19D-02 OVMax= 1.04D-02

 Cycle   5  Pass 0  IDiag  1:
 RMSU=  5.55D-05    CP:  9.56D-01  1.84D+00  6.43D-01  8.52D-01
 E= -1999.19504223413     Delta-E=       -0.003981761557 Rises=F Damp=F
 DIIS: error= 4.84D-04 at cycle   5 NSaved=   5.
 NSaved= 5 IEnMin= 5 EnMin= -1999.19504223413     IErMin= 5 ErrMin= 4.84D-04
 ErrMax= 4.84D-04  0.00D+00 EMaxC= 1.00D-01 BMatC= 6.77D-04 BMatP= 1.79D-02
 IDIUse=3 WtCom= 9.95D-01 WtEn= 4.84D-03
 Coeff-Com:  0.408D-01-0.839D-01-0.404D-01 0.122D+00 0.962D+00
 Coeff-En:   0.000D+00 0.000D+00 0.000D+00 0.000D+00 0.100D+01
 Coeff:      0.406D-01-0.835D-01-0.402D-01 0.121D+00 0.962D+00
 Gap=     0.230 Goal=   None    Shift=    0.000
 Gap=     0.231 Goal=   None    Shift=    0.000
 RMSDP=4.18D-05 MaxDP=4.02D-03 DE=-3.98D-03 OVMax= 1.04D-02

 Cycle   6  Pass 0  IDiag  1:
 RMSU=  3.05D-05    CP:  9.56D-01  1.85D+00  6.53D-01  9.74D-01  1.20D+00
 E= -1999.19566347040     Delta-E=       -0.000621236278 Rises=F Damp=F
 DIIS: error= 2.72D-04 at cycle   6 NSaved=   6.
 NSaved= 6 IEnMin= 6 EnMin= -1999.19566347040     IErMin= 6 ErrMin= 2.72D-04
 ErrMax= 2.72D-04  0.00D+00 EMaxC= 1.00D-01 BMatC= 2.58D-04 BMatP= 6.77D-04
 IDIUse=3 WtCom= 9.97D-01 WtEn= 2.72D-03
 Coeff-Com:  0.440D-01-0.901D-01-0.948D-01-0.104D+00 0.408D+00 0.837D+00
 Coeff-En:   0.000D+00 0.000D+00 0.000D+00 0.000D+00 0.000D+00 0.100D+01
 Coeff:      0.438D-01-0.898D-01-0.945D-01-0.103D+00 0.407D+00 0.837D+00
 Gap=     0.233 Goal=   None    Shift=    0.000
 Gap=     0.234 Goal=   None    Shift=    0.000
 RMSDP=2.69D-05 MaxDP=3.54D-03 DE=-6.21D-04 OVMax= 6.46D-03

 Cycle   7  Pass 0  IDiag  1:
 RMSU=  1.73D-05    CP:  9.56D-01  1.85D+00  6.56D-01  1.03D+00  1.48D+00
                    CP:  1.23D+00
 E= -1999.19589656361     Delta-E=       -0.000233093207 Rises=F Damp=F
 DIIS: error= 1.91D-04 at cycle   7 NSaved=   7.
 NSaved= 7 IEnMin= 7 EnMin= -1999.19589656361     IErMin= 7 ErrMin= 1.91D-04
 ErrMax= 1.91D-04  0.00D+00 EMaxC= 1.00D-01 BMatC= 6.67D-05 BMatP= 2.58D-04
 IDIUse=3 WtCom= 9.98D-01 WtEn= 1.91D-03
 Coeff-Com:  0.602D-02-0.121D-01-0.250D-01-0.612D-01-0.747D-01 0.300D+00
 Coeff-Com:  0.868D+00
 Coeff-En:   0.000D+00 0.000D+00 0.000D+00 0.000D+00 0.000D+00 0.000D+00
 Coeff-En:   0.100D+01
 Coeff:      0.601D-02-0.121D-01-0.249D-01-0.611D-01-0.746D-01 0.299D+00
 Coeff:      0.868D+00
 Gap=     0.234 Goal=   None    Shift=    0.000
 Gap=     0.235 Goal=   None    Shift=    0.000
 RMSDP=1.81D-05 MaxDP=1.39D-03 DE=-2.33D-04 OVMax= 2.79D-03

 Cycle   8  Pass 0  IDiag  1:
 RMSU=  1.22D-05    CP:  9.56D-01  1.85D+00  6.55D-01  1.05D+00  1.58D+00
                    CP:  1.55D+00  1.39D+00
 E= -1999.19595746282     Delta-E=       -0.000060899212 Rises=F Damp=F
 DIIS: error= 1.40D-04 at cycle   8 NSaved=   8.
 NSaved= 8 IEnMin= 8 EnMin= -1999.19595746282     IErMin= 8 ErrMin= 1.40D-04
 ErrMax= 1.40D-04  0.00D+00 EMaxC= 1.00D-01 BMatC= 2.83D-05 BMatP= 6.67D-05
 IDIUse=3 WtCom= 9.99D-01 WtEn= 1.40D-03
 Coeff-Com: -0.117D-01 0.242D-01 0.187D-01 0.464D-02-0.177D+00-0.134D+00
 Coeff-Com:  0.460D+00 0.815D+00
 Coeff-En:   0.000D+00 0.000D+00 0.000D+00 0.000D+00 0.000D+00 0.000D+00
 Coeff-En:   0.000D+00 0.100D+01
 Coeff:     -0.117D-01 0.242D-01 0.187D-01 0.463D-02-0.177D+00-0.134D+00
 Coeff:      0.459D+00 0.816D+00
 Gap=     0.234 Goal=   None    Shift=    0.000
 Gap=     0.236 Goal=   None    Shift=    0.000
 RMSDP=1.81D-05 MaxDP=1.05D-03 DE=-6.09D-05 OVMax= 2.32D-03

 Cycle   9  Pass 0  IDiag  1:
 RMSU=  9.97D-06    CP:  9.56D-01  1.85D+00  6.55D-01  1.05D+00  1.63D+00
                    CP:  1.76D+00  1.89D+00  1.82D+00
 E= -1999.19598557415     Delta-E=       -0.000028111325 Rises=F Damp=F
 DIIS: error= 9.95D-05 at cycle   9 NSaved=   9.
 NSaved= 9 IEnMin= 9 EnMin= -1999.19598557415     IErMin= 9 ErrMin= 9.95D-05
 ErrMax= 9.95D-05  0.00D+00 EMaxC= 1.00D-01 BMatC= 8.72D-06 BMatP= 2.83D-05
 IDIUse=1 WtCom= 1.00D+00 WtEn= 0.00D+00
 Coeff-Com: -0.495D-02 0.102D-01 0.106D-01 0.120D-01-0.510D-01-0.104D+00
 Coeff-Com:  0.704D-02 0.312D+00 0.809D+00
 Coeff:     -0.495D-02 0.102D-01 0.106D-01 0.120D-01-0.510D-01-0.104D+00
 Coeff:      0.704D-02 0.312D+00 0.809D+00
 Gap=     0.235 Goal=   None    Shift=    0.000
 Gap=     0.236 Goal=   None    Shift=    0.000
 RMSDP=2.14D-05 MaxDP=8.27D-04 DE=-2.81D-05 OVMax= 1.21D-03

 Cycle  10  Pass 0  IDiag  1:
 RMSU=  8.90D-06    CP:  9.56D-01  1.85D+00  6.56D-01  1.05D+00  1.66D+00
                    CP:  1.88D+00  2.29D+00  2.87D+00  2.23D+00
 E= -1999.19600377743     Delta-E=       -0.000018203280 Rises=F Damp=F
 DIIS: error= 1.04D-04 at cycle  10 NSaved=  10.
 NSaved=10 IEnMin=10 EnMin= -1999.19600377743     IErMin= 9 ErrMin= 9.95D-05
 ErrMax= 1.04D-04  0.00D+00 EMaxC= 1.00D-01 BMatC= 7.47D-06 BMatP= 8.72D-06
 IDIUse=1 WtCom= 1.00D+00 WtEn= 0.00D+00
 Coeff-Com: -0.233D-02 0.475D-02 0.545D-02 0.738D-02-0.203D-01-0.587D-01
 Coeff-Com: -0.320D-01 0.143D+00 0.536D+00 0.417D+00
 Coeff:     -0.233D-02 0.475D-02 0.545D-02 0.738D-02-0.203D-01-0.587D-01
 Coeff:     -0.320D-01 0.143D+00 0.536D+00 0.417D+00
 Gap=     0.235 Goal=   None    Shift=    0.000
 Gap=     0.236 Goal=   None    Shift=    0.000
 RMSDP=1.68D-05 MaxDP=6.33D-04 DE=-1.82D-05 OVMax= 4.45D-04

 Cycle  11  Pass 0  IDiag  1:
 RMSU=  8.42D-06    CP:  9.56D-01  1.85D+00  6.56D-01  1.05D+00  1.66D+00
                    CP:  1.95D+00  2.51D+00  3.00D+00  3.00D+00  1.93D+00
 E= -1999.19601251131     Delta-E=       -0.000008733883 Rises=F Damp=F
 DIIS: error= 1.46D-04 at cycle  11 NSaved=  11.
 NSaved=11 IEnMin=11 EnMin= -1999.19601251131     IErMin= 9 ErrMin= 9.95D-05
 ErrMax= 1.46D-04  0.00D+00 EMaxC= 1.00D-01 BMatC= 9.72D-06 BMatP= 7.47D-06
 IDIUse=1 WtCom= 1.00D+00 WtEn= 0.00D+00
 Coeff-Com: -0.600D-04 0.527D-04 0.198D-02 0.698D-02 0.149D-01-0.365D-01
 Coeff-Com: -0.134D+00-0.162D-01 0.608D+00 0.159D+01-0.103D+01
 Coeff:     -0.600D-04 0.527D-04 0.198D-02 0.698D-02 0.149D-01-0.365D-01
 Coeff:     -0.134D+00-0.162D-01 0.608D+00 0.159D+01-0.103D+01
 Gap=     0.235 Goal=   None    Shift=    0.000
 Gap=     0.236 Goal=   None    Shift=    0.000
 RMSDP=2.08D-05 MaxDP=7.39D-04 DE=-8.73D-06 OVMax= 9.91D-05

 Cycle  12  Pass 0  IDiag  1:
 RMSU=  8.48D-06    CP:  9.56D-01  1.85D+00  6.56D-01  1.05D+00  1.66D+00
                    CP:  1.89D+00  2.35D+00  2.87D+00  2.23D+00  7.14D-01
                    CP: -2.66D-01
[...]
 00000163,-0.00000022,0.00000100,0.00000003,0.00000145,-0.00000112,0.00
 000154,-0.00000047,-0.00000165,0.00000119,0.00000160,-0.00000054,0.000
 00029,0.00000003,0.00000058,0.00000027,-0.00000070,0.00000037,-0.00000
 108,-0.00000130,0.00000035,-0.00000078,0.00000094,0.00000076,-0.000000
 71,0.00000045,-0.00000036,-0.00000018,-0.00001414,0.00000180,0.0000006
 2,0.00000476,0.00000043,0.00000067,0.00000557,0.00000246,0.00000005,0.
 00000512,0.00000251,0.00000063,0.00000007,0.00000173,0.00000050,-0.000
 00250,-0.00000513,-0.00000118,-0.00000263,-0.00000143,0.00000023,-0.00
 000110,0.00000063,0.00000022,0.00000114,-0.00000088,-0.00000034,0.0000
 0143,-0.00000027,-0.00000037,-0.00000154,-0.00000328,-0.00000095,-0.00
 000002,-0.00000075,0.00000184,0.00000014,0.00000144,-0.00000245,0.0000
 0031,0.00000005,-0.00000014,0.00000088,-0.00000172,0.00000093,-0.00000
 012,0.00000323,-0.00000006,0.00000103,0.00000047,0.00000059,-0.0000009
 1,0.00000120,-0.00000120,-0.00000066,-0.00000048,-0.00000047,0.0000007
 5,-0.00000018,0.00000045,0.00000079,0.00000035,0.00000051,0.00000151,-
 0.00000073,0.00000047,-0.00000037,-0.00000086,0.00000124,-0.00000037,0
 .00000051,-0.00000028,0.00000043,0.00000089,0.00000020,-0.00000108,-0.
 00000010,-0.00000059,0.00002035,0.00002499,-0.00011908,0.00020109,-0.0
 0021871,-0.00021786,0.00003054,0.00000419,0.00005921,-0.00000589,-0.00
 001133,-0.00000804,-0.00000165,0.00001000,-0.00002432,-0.00000665,0.00
 000380,-0.00001112,-0.00022438,0.00038348,0.00025903,-0.00016186,-0.00
 009915,-0.00016454,0.00008700,-0.00005161,-0.00002658,-0.00005077,-0.0
 0003006,-0.00000087,-0.00024455,0.00036506,0.00121991,-0.00015444,0.00
 070000,-0.00005194,-0.00027418,-0.00035820,0.00119794,0.00010580,0.000
 07999,-0.00017278,-0.00069014,-0.00146436,-0.00161114,0.00012354,-0.00
 023010,0.00021784,-0.13015106,-0.09765185,-0.07499663,0.14072693,-0.00
 035299,0.00008462,0.00004894,-0.00040595,-0.00034190,-0.00049676,-0.00
 067534,0.00064120,0.00057305,-0.00302479,-0.00458228,-0.00227606,-0.00
 104375,-0.00122767,-0.00126844,-0.00008694,0.00017483,0.00022478,-0.00
 005077,0.00000787,-0.00004903,-0.00010648,-0.00039483,0.00052128,0.000
 24291,0.00016763,-0.00013684,0.00004620,-0.00012132,0.00004007,-0.0000
 3978,-0.00004626,0.00006518,-0.00012737,-0.00035777,0.00050383,0.00001
 777,0.00000415,-0.00002876,0.00000465,-0.00000362,0.00002237,0.0000026
 6,-0.00000034,-0.00001390,0.00016109,0.00000350,-0.00000118,0.00001824
 ,-0.00001293,0.00000258,-0.00003749,-0.00004690,0.00001148,-0.00007276
 ,-0.00001136,-0.00003132,0.00004531,0.00003399,-0.00000305,-0.00000229
 ,-0.00001464,0.00000122,0.00002056,-0.00002245,-0.00002682,0.00007725,
 0.00003007,0.00002468,-0.00000300,0.00000102,0.00000094,0.00000898,-0.
 00000453,-0.00000165,-0.00000054,0.00000053,0.00000061,0.00002129,-0.0
 0000637,0.00000144,0.00001350,0.00000731,0.00002552,-0.00000292,-0.000
 00082,0.00000173,0.00000717,0.00000047,-0.00000326,-0.00000233,0.00000
 133,0.00000004,-0.00000256,0.00000163,0.00000096,-0.00000147,0.0000063
 6,0.00000174,0.00000315,-0.00000498,0.00000145,0.00000003,0.00000007,0
 .00000060,0.00000027,-0.00000002,-0.00000107,0.00000228,-0.00000214,-0
 .00000353,-0.00000051,-0.00000036,-0.00000045,-0.00000094,-0.00000086,
 -0.00000026,-0.00003153,0.00000366,-0.00000003,0.00001054,0.00000093,0
 .00000178,0.00001711,-0.00000509,-0.00000056,0.00001031,0.00000442,0.0
 0000163,0.00000033,0.00000406,0.00000126,-0.00000559,-0.00000703,-0.00
 000132,-0.00000261,-0.00000162,-0.00000232,-0.00000185,0.00000237,0.00
 000025,0.00000155,-0.00000046,-0.00000048,0.00000165,-0.00000038,-0.00
 000105,-0.00000377,-0.00000799,-0.00000237,0.00000101,-0.00000278,-0.0
 0000088,0.00000059,0.00000403,0.00000033,0.00000102,0.00000018,0.00000
 129,0.00000003,-0.00000400,-0.00000015,-0.00000009,0.00000520,0.000001
 28,0.00000139,0.00000125,0.00000031,-0.00000137,0.00000178,0.00000327,
 -0.00000101,-0.00000014,-0.00000180,0.00000066,0.00000023,-0.00000037,
 0.00000093,0.00000049,-0.00000021,0.00000196,-0.00000138,0.00000070,0.
 00000043,-0.00000103,-0.00000246,-0.00000012,0.00000364,0.00000105,0.0
 0000106,0.00000067,-0.00000020,-0.00000201,-0.00000031,0.00000011,0.00
 009193,0.00013898,0.00016634,0.00005742,0.00028444,0.00090371,-0.00007
 437,-0.00002751,-0.00005741,0.00000774,0.00002197,0.00002539,0.0000076
 5,-0.00001539,0.00000221,0.00001252,0.00000505,0.00000945,0.00045556,-
 0.00085577,-0.00071813,0.00030672,0.00032434,0.00018979,-0.00011065,0.
 00019819,0.00004674,-0.00009549,0.00006624,-0.00000641,0.00009519,-0.0
 0024134,-0.00017823,0.00035899,-0.00046226,-0.00037786,-0.00120040,-0.
 00216466,0.00253921,0.00203029,-0.00046930,0.00044382,-0.01356730,-0.0
 1968821,-0.01397486,0.00027781,0.00049481,0.00055852,-0.09752866,-0.16
 237138,-0.09007715,0.10567728,0.18009576,-0.00029244,-0.00047794,-0.00
 000226,0.00012941,-0.00001542,-0.00027795,-0.00161201,-0.00026499,0.00
 121802,-0.01166756,-0.01514922,-0.01203777,0.00075711,0.00038506,-0.00
 282015,0.00028349,-0.00068835,-0.00012072,-0.00025169,0.00013238,-0.00
 005110,0.00004721,0.00046895,0.00004466,0.00049513,0.00043245,0.000026
 55,0.00009141,-0.00034948,0.00001259,0.00003843,0.00028464,0.00009227,
 -0.00031362,0.00025841,-0.00075064,-0.00005504,-0.00003215,-0.00000781
 ,0.00000859,-0.00001653,-0.00000628,-0.00003080,-0.00002080,-0.0000035
 2,0.00017295,0.00014527,0.00005157,0.00000863,-0.00002671,-0.00000581,
 0.00004106,-0.00008272,-0.00002100,-0.00001404,-0.00004608,0.00005453,
 0.00000658,0.00000908,0.00002396,0.00000629,0.00001877,0.00000194,0.00
 000197,-0.00000519,-0.00000298,0.00000701,0.00003586,-0.00005229,-0.00
 000068,-0.00000340,-0.00000168,0.00000102,-0.00000144,-0.00000405,0.00
 000066,-0.00000285,0.00000054,0.00000877,-0.00000300,0.00000067,-0.000
 00132,0.00001501,-0.00000374,-0.00005085,-0.00002094,0.00000016,0.0000
 8498,0.00000976,0.00000065,-0.00003039,0.00000027,-0.00000336,-0.00003
 031,0.00001400,-0.00000382,-0.00004031,-0.00000524,0.00000246,0.000014
 49,-0.00002113,0.00000461,-0.00000053,0.00001234,-0.00000343,0.0000053
 3,0.00000391,-0.00000105,0.00000852,-0.00000538,0.00000033,-0.00000578
 ,-0.00000348,0.00000114,-0.00000538,-0.00000101,0.00000179,-0.00001636
 ,0.00000209,0.00000067,0.00000713,0.00000284,0.00000142,0.00000952,0.0
 0000170,-0.00000129,0.00000545,0.00000374,0.00000093,0.00000102,0.0000
 0127,-0.00000026,-0.00000672,-0.00000910,-0.00000150,-0.00000292,-0.00
 000185,0.00000040,-0.00000041,0.00000158,0.00000047,0.00000050,0.00000
 068,0.00000020,0.00000104,-0.00000151,-0.00000070,-0.00000439,-0.00000
 517,-0.00000192,0.00000078,-0.00000331,0.00000018,-0.00000118,0.000005
 47,-0.00000307,0.00000495,-0.00000035,0.00000252,0.00000088,-0.0000092
 1,-0.00000074,-0.00000069,0.00000761,0.00000014,-0.00000314,0.00000340
 ,-0.00000162,-0.00000566,0.00000899,0.00000340,-0.00000121,0.00000163,
 -0.00000123,-0.00000208,0.00000164,-0.00000109,-0.00000113,0.00000038,
 -0.00000073,0.00000941,-0.00001862,0.00000579,-0.00000064,-0.00000608,
 -0.00000338,-0.00000043,0.00001408,-0.00000077,0.00000337,-0.00000095,
 0.00000318,-0.00000207,0.00000022,-0.00000056,-0.00001251,0.00008890,0
 .00011838,0.00009528,0.00003851,0.00004291,-0.00005703,-0.00001537,-0.
 00008485,-0.00000110,0.00004379,0.00001933,-0.00003348,-0.00004340,0.0
 0001258,0.00001922,-0.00000598,0.00000054,0.00004296,0.00002005,-0.000
 04620,-0.00003999,-0.00009710,0.00010415,-0.00001414,0.00001298,0.0000
 0582,-0.00003535,0.00004257,0.00001767,0.00150347,-0.00122393,-0.00229
 082,0.00014368,-0.00087606,0.00031645,0.00014832,0.00257303,-0.0016673
 5,-0.00155159,0.00016177,-0.00010520,0.01208013,0.01243827,0.01361122,
 -0.00029517,-0.00101617,0.00001665,-0.07318839,-0.08693410,-0.11601838
 ,0.07827169,0.09522195,0.12431612,0.00010196,0.00026537,-0.00005226,0.
 00001111,-0.00031008,-0.00021441,-0.00009832,0.00132970,0.00211491,-0.
 00973069,0.00347021,-0.00313810,-0.00086536,-0.00017669,0.00058037,0.0
 0001047,0.00031816,0.00005315,-0.00003128,-0.00005331,0.00001978,-0.00
 068730,0.00005013,-0.00029856,0.00018481,-0.00012659,-0.00001412,0.000
 10246,-0.00002997,0.00000079,0.00017280,-0.00003440,0.00001183,-0.0001
 4111,-0.00024307,0.00045159,0.00004862,0.00002743,-0.00000289,-0.00000
 807,-0.00006935,0.00000465,0.00003220,0.00000345,0.00000118,-0.0000984
 7,0.00000830,-0.00005852,0.00000248,0.00002487,0.00000105,0.00000160,0
 .00005358,-0.00000044,-0.00004466,-0.00001094,-0.00000260,-0.00002010,
 0.00001288,0.00000056,0.00002998,-0.00001235,0.00000950,0.00001291,-0.
 00001654,-0.00000919,-0.00000110,-0.00000551,0.00000902,0.00000219,0.0
 0001203,0.00000033,-0.00000043,0.00000577,0.00000035,-0.00000162,0.000
 00452,0.00000023,-0.00001172,0.00000946,0.00000155,0.00001027,-0.00001
 438,0.00000364,-0.00000675,-0.00000895,0.00000157,0.00001437,0.0000054
 6,-0.00000064,-0.00000262,-0.00000108,0.00000004,-0.00000630,0.0000029
 2,-0.00000131,-0.00000433,0.00000291,-0.00000092,-0.00000029,-0.000001
 55,0.00000055,0.00000069,0.00000068,-0.00000038,0.00000187,-0.00000004
 ,0.00000018,0.00000291,-0.00000190,0.00000040,-0.00000212,-0.00000188,
 0.00000067,-0.00000157,0.00000038,0.,0.00002583,-0.00000447,-0.0000007
 2,-0.00000790,-0.00000002,-0.00000073,-0.00001023,-0.00000279,-0.00000
 018,-0.00000970,-0.00000461,-0.00000127,0.00000030,-0.00000327,-0.0000
 0090,0.00000319,0.00000699,0.00000163,0.00000405,0.00000248,0.00000017
 ,0.00000229,-0.00000087,-0.00000036,-0.00000240,0.00000199,0.00000061,
 -0.00000248,0.00000007,0.00000037,0.00000166,0.00000509,0.00000126,0.0
 0000043,0.00000086,-0.00000308,-0.00000053,-0.00000168,0.00000380,0.00
 000015,-0.00000012,0.00000103,-0.00000125,0.00000153,-0.00000179,-0.00
 000005,-0.00000443,0.00000048,-0.00000214,-0.00000054,-0.00000139,0.00
 000031,-0.00000089,0.00000278,0.00000108,0.00000114,0.00000040,-0.0000
 0122,0.00000043,-0.00000124,-0.00000131,-0.00000067,-0.00000129,-0.000
 00107,-0.00000120,-0.00000012,0.00000078,0.00000071,-0.00000262,0.0000
 0002,0.00000090,0.00000079,0.00000023,-0.00000138,-0.00000037,0.000001
 39,0.00000014,0.00000152,-0.00019649,0.00013366,0.00028788,-0.00013601
 ,0.00011879,0.00008358,-0.00007059,-0.00000187,-0.00011398,0.00001836,
 0.00000192,0.00000672,0.00001466,-0.00000713,-0.00000248,-0.00000991,0
 .00000420,0.00001649,0.00014025,-0.00022671,-0.00005850,0.00005667,0.0
 0006343,0.00007048,-0.00004037,0.00005302,-0.00000599,-0.00002264,0.00
 002496,0.00000168,0.00119024,-0.00034265,0.00003612,-0.00004965,0.0000
 5591,0.00003234,0.00014884,-0.00103969,-0.00000169,-0.00045860,-0.0001
 0724,-0.00034782,0.00915099,-0.00195058,0.00116744,-0.00021236,0.00076
 234,-0.00032010,-0.24832872,0.09757901,-0.05022113,-0.01681392,0.00854
 479,-0.00488734,0.26663831,-0.00017178,-0.00005872,-0.00037416,-0.0002
 0408,-0.00030485,-0.00002440,-0.00048936,-0.00020042,-0.00019152,0.005
 51119,-0.00288399,0.00221087,0.00182197,-0.00076601,0.00013955,0.00007
 999,0.00000358,0.00006477,-0.00000400,0.00002871,0.00000643,-0.0002142
 6,0.00008854,-0.00018078,0.00011575,0.00006979,0.00004762,0.00002286,-
 0.00004403,0.00000335,0.00002675,-0.00000686,-0.00001377,0.00008120,0.
 00001058,0.00012439,0.00000193,-0.00001104,-0.00000928,-0.00000352,-0.
 00000419,0.00000114,0.00000804,0.00000455,0.00000162,0.00015792,-0.000
 01643,0.00003269,0.00000733,-0.00002527,0.00000030,-0.00003042,-0.0000
 5706,0.00001280,-0.00000342,0.00000590,-0.00006197,0.00004992,0.000013
 92,-0.00000446,-0.00002646,-0.00000224,-0.00000114,0.00000468,-0.00000
 392,-0.00000356,0.00003395,0.00003894,0.00005848,-0.00000358,-0.000007
 56,0.00000261,0.00000619,-0.00000661,0.00000043,0.00000083,-0.00000097
 ,-0.00000093,0.00002004,-0.00001083,-0.00000159,0.00000332,0.00000309,
 -0.00000325,0.00000466,0.00000377,0.00000093,-0.00000507,-0.00000134,-
 0.00000047,0.00000087,0.00000146,-0.00000018,0.00000239,-0.00000044,0.
 00000058,0.00000130,0.00000110,0.00000111,0.00000169,-0.00000139,0.,-0
 .00000061,-0.00000118,0.00000074,-0.00000091,0.00000022,-0.00000038,-0
 .00000012,-0.00000014,-0.00000111,0.00000089,0.00000115,-0.00000046,0.
 00000053,-0.00000074,0.00000005,-0.00003645,0.00000521,0.00000099,0.00
 001161,0.00000049,0.00000125,0.00001673,-0.00000044,-0.00000095,0.0000
 1298,0.00000615,0.00000139,-0.00000014,0.00000473,0.00000117,-0.000005
 33,-0.00000889,-0.00000192,-0.00000432,-0.00000307,-0.00000041,-0.0000
 0275,0.00000175,0.00000079,0.00000274,-0.00000184,-0.00000053,0.000002
 73,-0.00000026,-0.00000064,-0.00000335,-0.00000798,-0.00000226,0.00000
 006,-0.00000222,0.00000205,0.00000180,0.00000339,-0.00000244,0.0000004
 3,0.00000014,-0.00000037,0.00000034,-0.00000337,0.00000101,0.00000016,
 0.00000600,0.00000005,0.00000211,0.00000108,0.00000120,0.00000018,0.00
 000158,0.00000004,-0.00000153,-0.00000081,-0.00000108,0.00000099,-0.00
 000015,0.00000079,0.00000123,0.00000077,0.00000093,0.00000141,0.,0.000
 00036,-0.00000041,-0.00000104,0.00000074,0.00000020,0.00000150,-0.0000
 0016,0.00000017,0.00000121,0.00000029,-0.00000212,-0.00000025,-0.00000
 138,0.00007920,0.00007285,-0.00008338,0.00009231,0.00016664,0.00020630
 ,0.00002109,-0.00003133,0.00005604,-0.00000218,0.00000597,0.00000856,-
 0.00000669,0.00000858,-0.00001115,0.00000690,0.00000494,-0.00000547,0.
 00012517,-0.00036149,-0.00017486,0.00000982,0.00006340,0.00006307,0.00
 000448,0.00008606,0.00000893,-0.00007798,0.00011853,-0.00001569,-0.000
 20689,0.00089013,-0.00008098,-0.00007827,-0.00000177,-0.00006223,-0.00
 093093,-0.00183696,0.00305801,-0.00201714,-0.00083503,-0.00130292,0.02
 484692,-0.01561504,0.00569552,-0.00062021,0.00026044,0.00014475,0.0999
 5401,-0.09512158,0.02405279,-0.01985650,0.01070311,-0.00541358,-0.1081
 5118,0.10555976,0.00009095,-0.00096676,0.00028132,0.00012561,0.0005097
 3,-0.00001761,0.00064744,-0.00248834,-0.00198641,0.02402464,-0.0106236
 6,0.00268804,0.00116960,-0.00012023,-0.00156224,0.00000671,-0.00023904
 ,-0.00009322,0.00000649,0.00004642,-0.00000057,0.00022313,0.00009815,-
 0.00008201,0.00003082,0.00014463,0.00003026,-0.00002321,-0.00003416,0.
 00000653,-0.00006929,0.00000843,-0.00001891,0.00003962,0.00012974,-0.0
 0000698,-0.00000987,0.00000107,-0.00002109,0.00000048,0.00000073,0.000
 00982,-0.00001203,-0.00000098,0.00000482,0.00018340,-0.00007546,0.0000
 8200,-0.00000827,0.00000451,0.00000192,-0.00001298,-0.00006135,0.00001
 020,0.00008597,-0.00000183,0.00003217,-0.00002237,-0.00002784,0.000009
 53,0.00002908,0.00000440,-0.00001565,-0.00000340,0.00001112,-0.0000078
 1,-0.00002191,-0.00001634,-0.00005012,0.00000258,-0.00000782,-0.000003
 43,-0.00000439,0.00000180,-0.00000267,-0.00000011,-0.00001027,0.000001
 21,-0.00000610,0.00000397,0.00000125,-0.00000165,0.00000226,-0.0000010
 7,0.00000962,0.00000360,0.00000067,-0.00001515,-0.00000286,0.00000024,
 0.00000498,-0.00000113,0.00000084,0.00000497,-0.00000205,0.00000055,0.
 00000871,0.00000168,-0.00000051,-0.00000337,0.00000432,-0.00000049,0.0
 0000050,-0.00000137,-0.00000009,-0.00000087,-0.00000135,0.00000065,-0.
 00000192,0.00000094,-0.00000103,0.00000063,0.00000002,0.00000008,0.000
 00089,0.00000058,-0.00000040,0.00001698,-0.00000128,-0.00000070,-0.000
 00603,-0.00000099,-0.00000072,-0.00000758,-0.00000146,0.00000134,-0.00
 000588,-0.00000300,-0.00000025,-0.00000014,-0.00000238,-0.00000038,0.0
 0000381,0.00000621,0.00000125,0.00000233,0.00000190,-0.00000128,0.0000
 0108,-0.00000098,-0.00000069,-0.00000106,0.00000065,0.00000007,-0.0000
 0143,0.00000051,0.00000031,0.00000278,0.00000435,0.00000150,-0.0000001
 7,0.00000170,-0.00000140,-0.00000158,-0.00000265,0.00000179,-0.0000011
 5,0.00000004,-0.00000003,0.00000009,0.00000352,-0.00000016,-0.00000005
 ,-0.00000437,0.00000018,-0.00000012,-0.00000114,-0.00000022,0.00000010
 ,-0.00000272,-0.00000078,0.00000114,-0.00000008,0.00000060,0.00000008,
 -0.00000021,-0.00000022,-0.00000018,-0.00000040,-0.00000036,-0.0000024
 3,0.00000414,-0.00000131,0.00000035,0.00000175,-0.00000011,0.,-0.00000
 356,0.00000052,-0.00000066,-0.00000037,-0.00000089,0.00000157,0.000000
 02,0.00000105,0.00018700,-0.00021268,-0.00011790,0.00016720,-0.0002095
 6,0.00054511,0.00002004,0.00004320,0.00004404,-0.00000849,-0.00000860,
 -0.00000839,0.00000233,-0.00000575,0.00000197,0.00000416,-0.00000709,-
 0.00000503,0.00028572,-0.00011002,-0.00046973,-0.00001994,0.00011334,0
 .00004510,-0.00004764,0.00004189,0.00002952,-0.00001748,-0.00005187,0.
 00003435,0.00049503,0.00015083,0.00158080,-0.00015377,0.00001303,0.000
 05477,0.00134022,0.00127065,-0.00215461,0.00092075,0.00032122,0.000843
 21,-0.01681408,0.00790613,-0.00209271,0.00060348,-0.00022252,0.0000439
 2,-0.05296783,0.02510326,-0.06093035,-0.01526245,0.00755175,-0.0037264
 5,0.05478397,-0.02798166,0.06699347\\0.00000461,-0.00000483,-0.0000013
 7,0.,0.00000075,-0.00000337,-0.00000733,0.00000881,-0.00000135,0.00001
 113,-0.00000375,-0.00000749,-0.00000454,0.00000354,0.00000525,0.000002
 99,-0.00001104,0.00000011,-0.00000093,-0.00000116,0.00000035,-0.000002
 24,0.00000584,0.00000138,0.00000113,0.00000601,-0.00000128,0.00000579,
 -0.00000085,-0.00000063,-0.00000019,-0.00000077,0.00000043,-0.00000034
 ,-0.00000125,0.00000067,-0.00000038,-0.00000128,0.00000028,0.00000056,
 0.00000064,0.00000028,-0.00000004,0.00000099,0.00000009,0.00000356,0.0
 0000956,-0.00000129,-0.00000323,0.00000148,-0.00000090,-0.00000318,-0.
 00000346,0.00000099,-0.00000307,-0.00000665,-0.00000086,0.00000012,0.0
 0000014,0.00000004,0.00000648,0.00000080,0.00000070,0.00000024,0.00000
 241,0.00000028,0.00000039,0.00000156,-0.00000023,-0.00000014,0.0000001
 2,-0.00000044,-0.00000028,-0.00000061,0.00000008,-0.00000561,0.0000000
 5,-0.00000026,0.00000562,0.00000062,-0.00000194,-0.00000333,-0.0000009
 3,0.00000013,0.00000368,0.00000408,0.00000305,-0.00000704,-0.00000726,
 -0.00000063,0.00000074,0.00000372,0.00000003,0.00000305,-0.00000007,0.
 00000015,0.00000196,0.00000475,-0.00000190,-0.00000104,-0.00000303,-0.
 00000035,0.00000171,-0.00000124,0.00000105,0.,0.00000100,-0.00000016,0
 .00000004,-0.00000026,0.00000056,-0.00000111,0.00000028,-0.00000018,0.
 00000035,-0.00000115,0.00000035,-0.00000734,0.00000565,0.00000236,0.00
 000084,-0.00000436,-0.00000023,0.00000274,-0.00000522,-0.00000338,0.00
 000264,-0.00000070,0.00000029,0.00000110,0.00000036,0.,-0.00000306,0.0
 0000410,0.00000080,-0.00000043,0.00000081,-0.00000002,-0.00000066,-0.0
 0000110,-0.00000061,-0.00000157,-0.00000070,-0.00000068,-0.00000025,0.
 00000031,-0.00000053,-0.00000398,-0.00000079,-0.00000306,-0.00000035,0
 .00000065,-0.00000085,0.00000339,-0.00000121,0.00000395,-0.00000237,-0
 .00000610,-0.00000186,-0.00000652,-0.00000047,-0.00000373,0.00000569,0
 .00000202,0.00000206,0.00000129,-0.00000011,0.00000090,0.00000357,-0.0
 0000054,0.00000329,-0.00000073,-0.00000036,-0.00000021,0.00000066,-0.0
 0000252,0.00000039,0.00000052,0.00000142,0.00000024,-0.00000368,-0.000
 00093,-0.00000104,0.00000046,-0.00000089,-0.00000092,0.00000621,-0.000
 00293,0.00000233,-0.00000042,-0.00000018,-0.00000053,-0.00000238,0.000
 00528,-0.00000169,-0.00000114,-0.00000697,0.00000899,0.00000258,0.0000
 0135,-0.00000426,-0.00000568,0.00000167,0.00000014,0.00000126,-0.00000
 050,0.00000123,0.00000098,0.00000014,0.00000127,0.00000081,0.00000062,
 0.00000161,-0.00000314,0.00000006,-0.00000268,-0.00000012,0.00000063,-
 0.00000033,0.00000015,-0.00000035,-0.00000030,-0.00000035,-0.00000098,
 0.00000057,-0.00000206,0.00000240,0.00000215,0.00000119,0.00000045,-0.
 00000160,0.00000235,0.00000021,0.00000203,-0.00000153,-0.00000030,-0.0
 0000155,-0.00000015,0.00000214,-0.00000305,0.00000082,0.00000063,0.000
 00063,-0.00000029,-0.00000308,0.00000826,-0.00000036,0.00000177,-0.000
 00043,-0.00000085,0.00000104,-0.00000155\\\@


 HE THAT IS UNAWARE OF HIS IGNORANCE WILL BE MISLED BY HIS KNOWLEDGE.

                                        -- WHATLEY
 Job cpu time:       0 days 18 hours 57 minutes  9.5 seconds.
 Elapsed time:       0 days  3 hours 10 minutes  1.0 seconds.
 File lengths (MBytes):  RWF=  11343 Int=      0 D2E=      0 Chk=     79 Scr=      1
 Normal termination of Gaussian 16 at Fri Jun 26 19:35:40 2020.
